0 	-0.017195848 	0.023134036 	1.070118
5.5555625e-05 	-0.0026856982 	0.029180017 	1.0750008
0.00011111111 	0.003124291 	0.029862537 	1.0797682
0.00016666667 	0.0062633687 	0.030028897 	1.0837234
0.00022222222 	0.0076665535 	0.029914991 	1.0862865
0.00027777778 	0.0076816344 	0.029528773 	1.0873237
0.00033333333 	0.0067628961 	0.028950319 	1.0872324
0.00038888889 	0.0055005264 	0.028309016 	1.0867252
0.00044444444 	0.0044420325 	0.027725453 	1.0864779
0.0005 	0.003953272 	0.027277445 	1.0868678
0.00055555556 	0.0041934294 	0.027011461 	1.0879438
0.00061111111 	0.005161453 	0.026951683 	1.0895481
0.00066666667 	0.0067452667 	0.027084475 	1.0914607
0.00072222222 	0.0087558948 	0.027320123 	1.0934902
0.00077777778 	0.010972 	0.027488015 	1.09549
0.00083333333 	0.013143806 	0.027369492 	1.0973202
0.00088888889 	0.015070841 	0.026798562 	1.0987917
0.00094444444 	0.016647773 	0.025739836 	1.0996505
0.001 	0.017835457 	0.024188201 	1.0998851
0.0010617199 	0.018565015 	0.022429034 	1.099292
0.0011225874 	0.01888005 	0.020630761 	1.0980728
0.0011826143 	0.018613567 	0.018835141 	1.0965861
0.0012418122 	0.017629363 	0.016902441 	1.0950826
0.0013001926 	0.015859045 	0.014709374 	1.0935844
0.0013577668 	0.013477084 	0.01227946 	1.0920254
0.0014145458 	0.010885766 	0.0097781636 	1.090506
0.0014705407 	0.0085501771 	0.0074538593 	1.0893406
0.0015257623 	0.0067465513 	0.0056500922 	1.0887223
0.0015802213 	0.0054734332 	0.0047459574 	1.0884211
0.0016339282 	0.0045738975 	0.0049128401 	1.0879494
0.0016868934 	0.0039277837 	0.0060550073 	1.0869364
0.0017391271 	0.0035397741 	0.0078176661 	1.0853018
0.0017906395 	0.0035664955 	0.0098239741 	1.0831462
0.0018414404 	0.004187988 	0.011764866 	1.0805816
0.0018915398 	0.0055162687 	0.013436734 	1.077567
0.0019409473 	0.0075746541 	0.014730932 	1.073877
0.0019896725 	0.010223917 	0.015533351 	1.0692448
0.0020377248 	0.013236024 	0.015669861 	1.0635779
0.0020851134 	0.016431179 	0.01498425 	1.0570971
0.0021318476 	0.019663507 	0.013461188 	1.0503302
0.0021779364 	0.022757043 	0.011292734 	1.0439285
0.0022233887 	0.025546451 	0.0086926181 	1.038429
0.0022682133 	0.02789218 	0.0058383895 	1.0341384
0.0023124189 	0.029680334 	0.0029812717 	1.0312021
0.0023560139 	0.030810026 	0.00052108007 	1.0296739
0.0023990069 	0.031193666 	-0.0010695402 	1.029483
0.0024414062 	0.030821036 	-0.0013139458 	1.0303821
0.0024832199 	0.029786608 	0.00019689013 	1.0319425
0.0025244562 	0.028257109 	0.0036946583 	1.0336747
0.002565123 	0.026447753 	0.0091129398 	1.0351779
0.0026052281 	0.024563842 	0.016044663 	1.0362557
0.0026447794 	0.022743242 	0.023867338 	1.0369203
0.0026837845 	0.021052343 	0.031923694 	1.0373117
0.0027222509 	0.01951437 	0.039650484 	1.0375943
0.0027601861 	0.01811167 	0.046624846 	1.0378925
0.0027975974 	0.016813095 	0.052553457 	1.0382451
0.002834492 	0.015628985 	0.05726704 	1.0385764
0.0028708772 	0.014612839 	0.060708483 	1.0386147
0.0029067598 	0.013856676 	0.062910884 	1.0378496
0.0029421469 	0.013490938 	0.063951236 	1.0355566
0.0029770452 	0.013637273 	0.063910456 	1.0309534
0.0030114616 	0.01434588 	0.062832075 	1.0234518
0.0030454028 	0.015573382 	0.060703483 	1.0128989
0.0030788752 	0.017213533 	0.057416031 	0.99964603
0.0031118853 	0.019159741 	0.052677274 	0.9843757
0.0031444395 	0.021373349 	0.045927798 	0.96774957
0.0031765442 	0.023879933 	0.036373053 	0.95005246
0.0032082055 	0.026661141 	0.023269337 	0.9310163
0.0032394295 	0.029690392 	0.0064474424 	0.90995979
0.0032702223 	0.032758683 	-0.013215658 	0.88612787
0.0033005899 	0.035403014 	-0.033499127 	0.85924055
0.0033305381 	0.037013389 	-0.051268954 	0.83001219
0.0033600727 	0.0369587 	-0.063735226 	0.80005711
0.0033891994 	0.034954986 	-0.06959777 	0.77110713
0.0034179239 	0.031289535 	-0.069182577 	0.74461154
0.0034462517 	0.026674802 	-0.063828247 	0.72197329
0.0034741882 	0.021866106 	-0.055246781 	0.70449608
0.003501739 	0.017392592 	-0.045082729 	0.69275094
0.0035289093 	0.013515418 	-0.034637095 	0.68611784
0.0035557043 	0.01029978 	-0.024768513 	0.68297872
0.0035821293 	0.0076962635 	-0.015944571 	0.68127644
0.0036081894 	0.0056004821 	-0.0083575905 	0.67899069
0.0036338895 	0.0038848192 	-0.0020263125 	0.67436632
0.0036592348 	0.002471045 	0.0031311306 	0.66595889
0.00368423 	0.0013078899 	0.0072529453 	0.65254665
0.00370888 	0.00034697128 	0.010482621 	0.63317046
0.0037331896 	-0.00042145452 	0.01293207 	0.60713876
0.0037571635 	-0.00098881191 	0.014650278 	0.57410032
0.0037808063 	-0.001347741 	0.015624535 	0.53412614
0.0038041226 	-0.001502082 	0.015813371 	0.48775953
0.0038271169 	-0.0014721719 	0.015198743 	0.43598724
0.0038497936 	-0.0012996035 	0.013835369 	0.3801219
0.0038721572 	-0.0010408843 	0.011875237 	0.32161457
0.0038942119 	-0.00075507998 	0.0095543016 	0.26184375
0.003915962 	-0.00048997641 	0.0071398898 	0.20193781
0.0039374118 	-0.00027332597 	0.0048579545 	0.14268216
0.0039585653 	-0.00011566142 	0.0028202086 	0.084536858
0.0039794267 	-1.8030835e-05 	0.00096719344 	0.027756925
0.004 	-1.8030835e-05 	0.00096719344 	0.027756925
