0 	-0.019917658 	0.0052319071 	1.1348573
5.5555556e-05 	0.015833473 	0.021230752 	1.1423386
0.00011111111 	0.018720131 	0.017953696 	1.1440823
0.00016666667 	0.018796524 	0.014111474 	1.1450628
0.00022222222 	0.017194212 	0.0099501237 	1.1457077
0.00027777778 	0.014604474 	0.0060219153 	1.1463817
0.00033333333 	0.011443973 	0.0029570432 	1.1473695
0.00038888889 	0.007756145 	0.0012587315 	1.1486377
0.00044444444 	0.0033290443 	0.0010233138 	1.1491747
0.0005 	-0.0020198057 	0.0016271974 	1.1462124
0.00055555556 	-0.0081595814 	0.0016085394 	1.1355639
0.00061111111 	-0.014581569 	-0.00095929382 	1.1142663
0.00066666667 	-0.020476976 	-0.0074693925 	1.0844186
0.00072222222 	-0.025022587 	-0.018058648 	1.0549185
0.00077777778 	-0.028286646 	-0.030433225 	1.0360601
0.00083333333 	-0.032013456 	-0.038578743 	1.0267945
0.00088888889 	-0.038055244 	-0.037650899 	1.0184573
0.00094444444 	-0.046172282 	-0.029503837 	1.0102586
0.001 	-0.054996081 	-0.019058027 	1.0053886
0.0010617224 	-0.061734171 	-0.011289646 	1.0043632
0.0011225923 	-0.064170731 	-0.0089343354 	1.003115
0.0011826215 	-0.061640848 	-0.01131988 	0.99851742
0.0012418217 	-0.055593749 	-0.0158166 	0.99007323
0.0013002041 	-0.048258091 	-0.019564755 	0.97895426
0.0013577803 	-0.041729373 	-0.020996523 	0.96747946
0.0014145612 	-0.037348991 	-0.019996472 	0.95814426
0.0014705579 	-0.035553666 	-0.017139466 	0.9523419
0.0015257812 	-0.036081635 	-0.013052483 	0.94993278
0.0015802418 	-0.038357254 	-0.008281928 	0.94968564
0.0016339502 	-0.041795092 	-0.0033415594 	0.95002478
0.0016869168 	-0.045949464 	0.0013625349 	0.9495144
0.0017391518 	-0.050455231 	0.005504153 	0.94698042
0.0017906654 	-0.054863279 	0.0086159373 	0.94159941
0.0018414676 	-0.058566217 	0.0099927398 	0.93320807
0.0018915681 	-0.060934868 	0.0089811207 	0.92257346
0.0019409766 	-0.061594137 	0.0054903106 	0.9112535
0.0019897027 	-0.060541883 	0.00017628142 	0.90095446
0.0020377558 	-0.058044649 	-0.0058668979 	0.89277329
0.0020851453 	-0.054488139 	-0.011572393 	0.88690844
0.0021318802 	-0.050276193 	-0.016175033 	0.8829519
0.0021779697 	-0.045803616 	-0.019283105 	0.88027383
0.0022234225 	-0.041454622 	-0.020824061 	0.87826846
0.0022682477 	-0.03754759 	-0.02096941 	0.87644758
0.0023124537 	-0.034275901 	-0.020044416 	0.87446478
0.0023560491 	-0.031703882 	-0.018431538 	0.87214542
0.0023990425 	-0.029811857 	-0.01648413 	0.86953486
0.002441442 	-0.028549337 	-0.014472515 	0.8669153
0.002483256 	-0.027861379 	-0.012566519 	0.86471208
0.0025244924 	-0.027664009 	-0.010847695 	0.86328609
0.0025651593 	-0.027801811 	-0.0093453458 	0.86273078
0.0026052645 	-0.02802522 	-0.0080616677 	0.86281012
0.0026448158 	-0.027998624 	-0.0069693104 	0.86305976
0.0026838209 	-0.027378985 	-0.0059823642 	0.8629941
0.0027222872 	-0.025923402 	-0.0049656187 	0.86230247
0.0027602223 	-0.023503339 	-0.0037603013 	0.86089757
0.0027976334 	-0.020114158 	-0.0022418295 	0.85891805
0.0028345278 	-0.015904805 	-0.00038471194 	0.85657146
0.0028709126 	-0.01111092 	0.0017631179 	0.85400855
0.002906795 	-0.0059785947 	0.004089404 	0.85131097
0.0029421817 	-0.00075905803 	0.0064566712 	0.84851302
0.0029770797 	0.0043159586 	0.0087165089 	0.8455726
0.0030114957 	0.0090523212 	0.01074605 	0.84241002
0.0030454363 	0.013299194 	0.012462033 	0.83894053
0.0030789082 	0.016952646 	0.01381618 	0.83509917
0.0031119178 	0.019946652 	0.014793425 	0.83086152
0.0031444715 	0.022245009 	0.015387327 	0.82625833
0.0031765755 	0.023820179 	0.015588386 	0.82138476
0.0032082362 	0.024634855 	0.015376464 	0.81639725
0.0032394596 	0.024641812 	0.014737487 	0.81149393
0.0032702517 	0.023816587 	0.013693265 	0.8068713
0.0033006186 	0.022206618 	0.012325379 	0.80266068
0.003330566 	0.01996417 	0.010769478 	0.79887212
0.0033600998 	0.017351825 	0.009173146 	0.79539001
0.0033892257 	0.014690779 	0.0076287155 	0.79204259
0.0034179494 	0.012278568 	0.006116618 	0.78870888
0.0034462763 	0.01031935 	0.004491876 	0.78538073
0.003474212 	0.0088849895 	0.0025375026 	0.78213482
0.0035017619 	0.0079215309 	7.6713815e-05 	0.77904102
0.0035289312 	0.0072830378 	-0.002896337 	0.77609016
0.0035557253 	0.0067730491 	-0.0061923156 	0.7731904
0.0035821494 	0.0062036347 	-0.0094836423 	0.77016645
0.0036082084 	0.0055572534 	-0.012419358 	0.76658529
0.0036339076 	0.0049823782 	-0.014740099 	0.76194054
0.0036592518 	0.0046067908 	-0.016275627 	0.75536039
0.003684246 	0.0045313914 	-0.016906402 	0.74566339
0.003708895 	0.0047788044 	-0.016518223 	0.73160062
0.0037332035 	0.0052560766 	-0.015035593 	0.71212607
0.0037571763 	0.0057479455 	-0.012507038 	0.6864645
0.003780818 	0.0059724795 	-0.0091946616 	0.65385305
0.0038041332 	0.0056836179 	-0.0056565653 	0.61304563
0.0038271264 	0.0047874022 	-0.0027852007 	0.56204817
0.0038498019 	0.0034275068 	-0.0016112802 	0.49880536
0.0038721643 	0.0019652542 	-0.0027014295 	0.42303587
0.0038942179 	0.00081104051 	-0.0054723037 	0.3381287
0.0039159668 	0.0001245425 	-0.0082290855 	0.25094398
0.0039374154 	-0.0001483448 	-0.0091292511 	0.1687315
0.0039585677 	-0.00014912866 	-0.0072350458 	0.095519932
0.0039794279 	-4.4902445e-05 	-0.0028390555 	0.030673614
0.004 	-4.4902445e-05 	-0.0028390555 	0.030673614
