0 	-0.068713013 	0.055014257 	0.88922519
5.5555556e-05 	-0.081576587 	0.022911273 	0.87977306
0.00011111111 	-0.078049769 	0.018029558 	0.87266937
0.00016666667 	-0.071814081 	0.019709231 	0.86757404
0.00022222222 	-0.064112498 	0.023777235 	0.86399256
0.00027777778 	-0.055532716 	0.028709136 	0.86137301
0.00033333333 	-0.046629566 	0.033625564 	0.85925861
0.00038888889 	-0.037959878 	0.037910035 	0.85737267
0.00044444444 	-0.029983653 	0.04115983 	0.85557568
0.0005 	-0.022994623 	0.043204608 	0.8537589
0.00055555556 	-0.017096257 	0.044084822 	0.85176332
0.00061111111 	-0.012228797 	0.043989224 	0.84936543
0.00066666667 	-0.0082476827 	0.043186229 	0.84630806
0.00072222222 	-0.0050087653 	0.041959965 	0.8423398
0.00077777778 	-0.002408796 	0.040528859 	0.83729791
0.00083333333 	-0.00038684516 	0.038914966 	0.83136605
0.00088888889 	0.0010351734 	0.036758026 	0.82560492
0.00094444444 	0.00184876 	0.033298916 	0.82246666
0.001 	0.0016645168 	0.027067239 	0.82587097
0.0010617199 	0.00024461176 	0.016750182 	0.84099842
0.0011225874 	-0.0013878918 	0.0030988989 	0.86580578
0.0011826143 	-0.0024799358 	-0.012285811 	0.89318164
0.0012418122 	-0.0027216641 	-0.027240789 	0.91571822
0.0013001926 	-0.0022756016 	-0.039877802 	0.93044127
0.0013577668 	-0.0016058746 	-0.049167015 	0.93845631
0.0014145458 	-0.001289241 	-0.054981826 	0.9422696
0.0014705407 	-0.001779836 	-0.057796508 	0.94388386
0.0015257623 	-0.0033218883 	-0.058554949 	0.94451064
0.0015802213 	-0.0059208428 	-0.058379312 	0.94490885
0.0016339282 	-0.0094064248 	-0.058377206 	0.94564663
0.0016868934 	-0.013463353 	-0.059403182 	0.94706013
0.0017391271 	-0.017682326 	-0.061830835 	0.94913895
0.0017906395 	-0.021616521 	-0.065446439 	0.95158253
0.0018414404 	-0.024874247 	-0.069569136 	0.95404519
0.0018915398 	-0.027204807 	-0.073382587 	0.95639609
0.0019409473 	-0.028526879 	-0.076295802 	0.95880925
0.0019896725 	-0.028892499 	-0.078137313 	0.96164077
0.0020377248 	-0.028411857 	-0.079114703 	0.96520412
0.0020851134 	-0.027197869 	-0.079607573 	0.9695765
0.0021318476 	-0.025354271 	-0.079937798 	0.97450483
0.0021779364 	-0.022989304 	-0.080222981 	0.97943195
0.0022233887 	-0.020239893 	-0.080367485 	0.98361629
0.0022682133 	-0.01728115 	-0.080162555 	0.98632902
0.0023124189 	-0.014295553 	-0.079400001 	0.98706009
0.0023560139 	-0.01140975 	-0.077935245 	0.98566722
0.0023990069 	-0.0087002379 	-0.07568618 	0.98239792
0.0024414062 	-0.0062460262 	-0.07263838 	0.97780434
0.0024832199 	-0.0041019469 	-0.06883965 	0.97255849
0.0025244562 	-0.0022874763 	-0.06442285 	0.96721889
0.002565123 	-0.00078689553 	-0.059555017 	0.96208903
0.0026052281 	0.00048166206 	-0.054389285 	0.9572143
0.0026447794 	0.0016082545 	-0.049029921 	0.95247518
0.0026837845 	0.002667111 	-0.043550189 	0.94770501
0.0027222509 	0.0036790535 	-0.038023827 	0.94280675
0.0027601861 	0.0046114598 	-0.032543393 	0.93780672
0.0027975974 	0.0053937736 	-0.027192451 	0.93286003
0.002834492 	0.0059417907 	-0.022023735 	0.92819011
0.0028708772 	0.0061957065 	-0.017025623 	0.92402598
0.0029067598 	0.0061532709 	-0.012138839 	0.92052266
0.0029421469 	0.0058562459 	-0.0072970366 	0.91772886
0.0029770452 	0.005388702 	-0.0024812095 	0.91557674
0.0030114616 	0.0049307829 	0.0022427162 	0.91390906
0.0030454028 	0.0046916361 	0.0067388883 	0.91248117
0.0030788752 	0.0047730747 	0.010825831 	0.91102675
0.0031118853 	0.0051957492 	0.014349508 	0.90925542
0.0031444395 	0.0059357993 	0.017243188 	0.90689598
0.0031765442 	0.0069469881 	0.019551516 	0.90373152
0.0032082055 	0.0081855973 	0.021405157 	0.89964599
0.0032394295 	0.0095835858 	0.023017741 	0.89472231
0.0032702223 	0.01103958 	0.024627237 	0.88928806
0.0033005899 	0.012426203 	0.026432954 	0.88384883
0.0033305381 	0.013633502 	0.028512949 	0.87891296
0.0033600727 	0.014609653 	0.030750121 	0.87476806
0.0033891994 	0.015363785 	0.032848392 	0.87129705
0.0034179239 	0.015944857 	0.034507509 	0.86784433
0.0034462517 	0.01644823 	0.035702735 	0.86309866
0.0034741882 	0.017048531 	0.036825683 	0.85508789
0.003501739 	0.017966151 	0.038479477 	0.84153587
0.0035289093 	0.019310242 	0.041004145 	0.8206133
0.0035557043 	0.020892017 	0.044088381 	0.7916901
0.0035821293 	0.022179993 	0.046755441 	0.75575017
0.0036081894 	0.022457488 	0.047675581 	0.71544661
0.0036338895 	0.021119264 	0.045634222 	0.67460161
0.0036592348 	0.017978327 	0.040078607 	0.6367207
0.00368423 	0.013426439 	0.031503291 	0.60306956
0.00370888 	0.0083173714 	0.021321085 	0.57195724
0.0037331896 	0.0036061367 	0.011245383 	0.53995934
0.0037571635 	1.0797176e-05 	0.0026389667 	0.50400155
0.0037808063 	-0.002184391 	-0.0038272384 	0.46267159
0.0038041226 	-0.0031533688 	-0.0081811148 	0.41623632
0.0038271169 	-0.0033064497 	-0.010877565 	0.36609985
0.0038497936 	-0.0030479543 	-0.012416653 	0.31401742
0.0038721572 	-0.0026387638 	-0.013054553 	0.26154015
0.0038942119 	-0.0021773131 	-0.012767187 	0.20981541
0.003915962 	-0.0016656169 	-0.011416029 	0.15962493
0.0039374118 	-0.0010975684 	-0.0089539553 	0.11145912
0.0039585653 	-0.00052954405 	-0.0055551401 	0.065501912
0.0039794267 	-8.3692407e-05 	-0.0016922045 	0.021522856
0.004 	-7.3914851e-05 	0.00057689171 	0.014820285
