0 	0.010377986 	0.0074603342 	1.0989931
5.5555556e-05 	0.007850733 	0.010108072 	1.1024582
0.00011111111 	0.0083524821 	0.0097097248 	1.1056365
0.00016666667 	0.0095038738 	0.0086112275 	1.1084056
0.00022222222 	0.010844054 	0.0070318975 	1.110625
0.00027777778 	0.012266176 	0.0050139085 	1.1121464
0.00033333333 	0.0137548 	0.0025609428 	1.1128268
0.00038888889 	0.015311808 	-0.00032558008 	1.1125482
0.00044444444 	0.016936218 	-0.0036312767 	1.1112469
0.0005 	0.018621125 	-0.0073371947 	1.1089344
0.00055555556 	0.020330882 	-0.01140031 	1.1057236
0.00061111111 	0.021994888 	-0.015757009 	1.1018537
0.00066666667 	0.02352128 	-0.020337324 	1.0977032
0.00072222222 	0.024801867 	-0.025077376 	1.0937634
0.00077777778 	0.025766833 	-0.029939694 	1.0905444
0.00083333333 	0.026405105 	-0.03486511 	1.0883956
0.00088888889 	0.026778472 	-0.039742067 	1.0873277
0.00094444444 	0.027011133 	-0.044396395 	1.0869085
0.001 	0.02711036 	-0.048755171 	1.0864291
0.0010617199 	0.027092158 	-0.052237416 	1.0844927
0.0011225874 	0.026870353 	-0.05423339 	1.0802177
0.0011826143 	0.026006736 	-0.054811274 	1.0733939
0.0012418122 	0.023970057 	-0.054451994 	1.0646095
0.0013001926 	0.020339167 	-0.053866704 	1.0549975
0.0013577668 	0.015142304 	-0.053686211 	1.045606
0.0014145458 	0.0090001603 	-0.053961101 	1.0366849
0.0014705407 	0.0029951538 	-0.053833823 	1.0274565
0.0015257623 	-0.0017591107 	-0.051736535 	1.0165951
0.0015802213 	-0.0044323281 	-0.046124181 	1.0030444
0.0016339282 	-0.0047344014 	-0.03629452 	0.98635603
0.0016868934 	-0.0028017087 	-0.022616651 	0.96657284
0.0017391271 	0.00090721865 	-0.0062739223 	0.94408878
0.0017906395 	0.0055141741 	0.010994719 	0.92011588
0.0018414404 	0.0097800943 	0.026953939 	0.89717817
0.0018915398 	0.012547221 	0.0392901 	0.87827723
0.0019409473 	0.013496968 	0.046209216 	0.86550251
0.0019896725 	0.013226037 	0.047027815 	0.85927487
0.0020377248 	0.012635125 	0.042663963 	0.85842418
0.0020851134 	0.012237884 	0.035310726 	0.86093996
0.0021318476 	0.012008412 	0.027247138 	0.86476842
0.0021779364 	0.011723359 	0.019951981 	0.86811129
0.0022233887 	0.011385411 	0.01416236 	0.86947378
0.0022682133 	0.011115063 	0.010305199 	0.86767641
0.0023124189 	0.01085539 	0.008745795 	0.86178047
0.0023560139 	0.010536444 	0.0098272652 	0.85123999
0.0023990069 	0.0099475779 	0.013582127 	0.83639053
0.0024414062 	0.0088104178 	0.019532808 	0.81909121
0.0024832199 	0.0069303185 	0.026679315 	0.80244065
0.0025244562 	0.0042499708 	0.033760578 	0.78939625
0.002565123 	0.00088445909 	0.039571079 	0.78147914
0.0026052281 	-0.0030100101 	0.043178456 	0.77865799
0.0026447794 	-0.0072748654 	0.044031613 	0.7801214
0.0026837845 	-0.011780984 	0.041939431 	0.78488297
0.0027222509 	-0.016415185 	0.037019283 	0.79195792
0.0027601861 	-0.020960139 	0.029619094 	0.80026796
0.0027975974 	-0.025098712 	0.020228302 	0.80861047
0.002834492 	-0.028445419 	0.009377446 	0.81574666
0.0028708772 	-0.030656322 	-0.002410691 	0.82065213
0.0029067598 	-0.031454978 	-0.014571782 	0.82263308
0.0029421469 	-0.030694823 	-0.026616402 	0.82137657
0.0029770452 	-0.028421586 	-0.038119347 	0.81702869
0.0030114616 	-0.024807592 	-0.048727261 	0.81010368
0.0030454028 	-0.020148322 	-0.058170996 	0.80136979
0.0030788752 	-0.014805725 	-0.066269039 	0.79171603
0.0031118853 	-0.0091528589 	-0.072926155 	0.78203472
0.0031444395 	-0.0035393225 	-0.078125895 	0.77312884
0.0031765442 	0.0017369609 	-0.081915118 	0.76565048
0.0032082055 	0.0064508614 	-0.084379635 	0.76005812
0.0032394295 	0.010467798 	-0.085614249 	0.7565859
0.0032702223 	0.013752154 	-0.085676805 	0.75521778
0.0033005899 	0.016361527 	-0.084548449 	0.75567887
0.0033305381 	0.018426713 	-0.08211967 	0.75746003
0.0033600727 	0.020109131 	-0.078226053 	0.75989778
0.0033891994 	0.021552199 	-0.072733476 	0.7623035
0.0034179239 	0.022839697 	-0.065641409 	0.764105
0.0034462517 	0.023978236 	-0.05715593 	0.76494846
0.0034741882 	0.024906986 	-0.047692233 	0.76472186
0.003501739 	0.025529999 	-0.037799079 	0.76350196
0.0035289093 	0.025753696 	-0.02804039 	0.76146273
0.0035557043 	0.025513429 	-0.018889178 	0.75878679
0.0035821293 	0.024788691 	-0.010673635 	0.75560108
0.0036081894 	0.023578799 	-0.0035697381 	0.75193737
0.0036338895 	0.021964584 	0.0023631643 	0.74771608
0.0036592348 	0.020096792 	0.0071400531 	0.74275992
0.00368423 	0.018053182 	0.010846009 	0.73673872
0.00370888 	0.015849854 	0.013623615 	0.72907659
0.0037331896 	0.013504156 	0.015703476 	0.71875766
0.0037571635 	0.011041287 	0.017411954 	0.7040658
0.0037808063 	0.0085474604 	0.019082487 	0.68246387
0.0038041226 	0.0062136828 	0.020842992 	0.65084893
0.0038271169 	0.004297003 	0.022411183 	0.6062925
0.0038497936 	0.00298919 	0.023130387 	0.54714697
0.0038721572 	0.002274455 	0.022357471 	0.47413503
0.0038942119 	0.0018990473 	0.019945776 	0.3906914
0.003915962 	0.0015328258 	0.016350131 	0.30186983
0.0039374118 	0.0010132796 	0.012228179 	0.21232704
0.0039585653 	0.00043614254 	0.0078931057 	0.12495277
0.0039794267 	4.6991481e-05 	0.0030408884 	0.040815698
0.004 	0.0001066123 	-0.0028157072 	0.048898349
