0 	-0.057883644 	-0.051097315 	0.97613833
5.5555556e-05 	-0.018057902 	0.070463797 	0.97282634
0.00011111111 	-0.0081639757 	0.069631748 	0.97044782
0.00016666667 	-0.0031670871 	0.067332923 	0.96781787
0.00022222222 	0.00022672072 	0.064758813 	0.96521039
0.00027777778 	0.0029925784 	0.062139625 	0.96291745
0.00033333333 	0.0054736542 	0.059467741 	0.96117475
0.00038888889 	0.007783133 	0.056639078 	0.96010442
0.00044444444 	0.0099431987 	0.053533401 	0.95968011
0.0005 	0.011940629 	0.050066274 	0.95974744
0.00055555556 	0.013772124 	0.046224085 	0.96009387
0.00061111111 	0.015462313 	0.04206126 	0.9605406
0.00066666667 	0.017063306 	0.037680292 	0.96101788
0.00072222222 	0.018644187 	0.033205194 	0.96158772
0.00077777778 	0.020261946 	0.028753484 	0.96240957
0.00083333333 	0.021945877 	0.024425435 	0.96367874
0.00088888889 	0.023656496 	0.020325694 	0.96555557
0.00094444444 	0.025402768 	0.016589522 	0.96813464
0.001 	0.02699947 	0.013089836 	0.97164151
0.0010617199 	0.028364728 	0.010083586 	0.97595178
0.0011225874 	0.029351934 	0.0077886155 	0.98067871
0.0011826143 	0.029924101 	0.0062021067 	0.98560005
0.0012418122 	0.030125213 	0.0053004946 	0.9905144
0.0013001926 	0.030087877 	0.0050152795 	0.99525814
0.0013577668 	0.029990656 	0.0052316103 	0.99969514
0.0014145458 	0.029993952 	0.0058078024 	1.0036956
0.0014705407 	0.030208869 	0.0065476369 	1.0071246
0.0015257623 	0.030653518 	0.0072453779 	1.0098281
0.0015802213 	0.031298851 	0.0076913718 	1.0116202
0.0016339282 	0.032090262 	0.0077325828 	1.0122775
0.0016868934 	0.032955745 	0.007268634 	1.011561
0.0017391271 	0.033837762 	0.0063131155 	1.0092826
0.0017906395 	0.034668563 	0.0050476311 	1.0054121
0.0018414404 	0.035359604 	0.0038295743 	1.0001709
0.0018915398 	0.035802507 	0.0030719957 	0.99405838
0.0019409473 	0.035883142 	0.0030455636 	0.98776368
0.0019896725 	0.035483273 	0.0037389587 	0.98198082
0.0020377248 	0.034502998 	0.0049139255 	0.97722226
0.0020851134 	0.032869186 	0.006329173 	0.97372353
0.0021318476 	0.030530381 	0.0079317359 	0.97142383
0.0021779364 	0.027440571 	0.0098054704 	0.96986649
0.0022233887 	0.023539756 	0.011948012 	0.96804445
0.0022682133 	0.018844644 	0.0143419 	0.96459707
0.0023124189 	0.013641548 	0.01742975 	0.95864706
0.0023560139 	0.008510226 	0.022091767 	0.95046392
0.0023990069 	0.004022007 	0.028546505 	0.94099007
0.0024414062 	0.00039475185 	0.035273601 	0.93083918
0.0024832199 	-0.0025159773 	0.039401963 	0.92006608
0.0025244562 	-0.0050598639 	0.038444321 	0.90889608
0.002565123 	-0.0076512245 	0.031948065 	0.89847678
0.0026052281 	-0.010596153 	0.021661428 	0.8906135
0.0026447794 	-0.013891042 	0.01011001 	0.88650035
0.0026837845 	-0.017067169 	-0.0010513746 	0.88563956
0.0027222509 	-0.01963539 	-0.011477332 	0.88618091
0.0027601861 	-0.021328988 	-0.021537321 	0.88629629
0.0027975974 	-0.022029677 	-0.031703683 	0.88522681
0.002834492 	-0.021890208 	-0.042286652 	0.88322109
0.0028708772 	-0.021168586 	-0.05347464 	0.88100106
0.0029067598 	-0.020065813 	-0.065386778 	0.87928028
0.0029421469 	-0.018684978 	-0.078021566 	0.8785389
0.0029770452 	-0.017032561 	-0.091197832 	0.87897386
0.0030114616 	-0.015028352 	-0.10451176 	0.88046474
0.0030454028 	-0.012523997 	-0.11737428 	0.88247157
0.0030788752 	-0.0093165346 	-0.12909038 	0.88391124
0.0031118853 	-0.0051843406 	-0.13895578 	0.88315301
0.0031444395 	6.1801371e-05 	-0.14632811 	0.87835433
0.0031765442 	0.0064111296 	-0.15062994 	0.8681948
0.0032082055 	0.013522897 	-0.15138518 	0.85265578
0.0032394295 	0.020725289 	-0.14833268 	0.83335925
0.0032702223 	0.027163238 	-0.1415989 	0.81307889
0.0033005899 	0.032085342 	-0.13175237 	0.79476441
0.0033305381 	0.035041307 	-0.11965999 	0.78067744
0.0033600727 	0.035944616 	-0.10625108 	0.77202084
0.0033891994 	0.035003478 	-0.092294746 	0.7689735
0.0034179239 	0.032594746 	-0.07828391 	0.77091135
0.0034462517 	0.029149128 	-0.064439829 	0.77665619
0.0034741882 	0.02507267 	-0.050792911 	0.78473969
0.003501739 	0.020695051 	-0.037271276 	0.79358971
0.0035289093 	0.016256147 	-0.023823024 	0.80161583
0.0035557043 	0.011920937 	-0.010461412 	0.80719089
0.0035821293 	0.0078519537 	0.002698291 	0.80848121
0.0036081894 	0.0042422823 	0.015416186 	0.80336926
0.0036338895 	0.0012509865 	0.027299885 	0.78961796
0.0036592348 	-0.00099834359 	0.037776755 	0.76536117
0.00368423 	-0.0024505245 	0.046188982 	0.72986902
0.00370888 	-0.0031745996 	0.051966323 	0.68409267
0.0037331896 	-0.0033302904 	0.05480462 	0.63054465
0.0037571635 	-0.0031219546 	0.054771512 	0.57247365
0.0037808063 	-0.0027418664 	0.052296878 	0.51285114
0.0038041226 	-0.0023291783 	0.048057107 	0.45372445
0.0038271169 	-0.0019591186 	0.042802004 	0.39611195
0.0038497936 	-0.0016513837 	0.037191572 	0.34025082
0.0038721572 	-0.0013886502 	0.031692559 	0.28593038
0.0038942119 	-0.0011373744 	0.026536485 	0.23275986
0.003915962 	-0.00086783241 	0.021703356 	0.18034148
0.0039374118 	-0.00057195746 	0.016897027 	0.12837014
0.0039585653 	-0.00027870216 	0.011514653 	0.076696079
0.0039794267 	-4.5357143e-05 	0.0046658185 	0.025398858
0.004 	-4.5357143e-05 	0.0046658185 	0.025398858
