0 	-0.045332974 	0.011604957 	0.98368588
2.0100503e-05 	0.0076067316 	0.053637815 	0.98361441
4.0201005e-05 	0.0076067316 	0.053637815 	0.98361441
6.0301508e-05 	0.031659492 	0.054453505 	0.9847687
8.040201e-05 	0.031659492 	0.054453505 	0.9847687
0.00010050251 	0.031659492 	0.054453505 	0.9847687
0.00012060302 	0.040615977 	0.058324195 	0.98619574
0.00014070352 	0.040615977 	0.058324195 	0.98619574
0.00016080402 	0.040615977 	0.058324195 	0.98619574
0.00018090452 	0.046386387 	0.06096807 	0.98672153
0.00020100503 	0.046386387 	0.06096807 	0.98672153
0.00022110553 	0.046386387 	0.06096807 	0.98672153
0.00024120603 	0.050380088 	0.06061477 	0.98571809
0.00026130653 	0.050380088 	0.06061477 	0.98571809
0.00028140704 	0.053072482 	0.056761256 	0.98336842
0.00030150754 	0.053072482 	0.056761256 	0.98336842
0.00032160804 	0.053072482 	0.056761256 	0.98336842
0.00034170854 	0.054746977 	0.049336365 	0.98022094
0.00036180905 	0.054746977 	0.049336365 	0.98022094
0.00038190955 	0.054746977 	0.049336365 	0.98022094
0.00040201005 	0.055494177 	0.038591782 	0.97665756
0.00042211055 	0.055494177 	0.038591782 	0.97665756
0.00044221106 	0.055494177 	0.038591782 	0.97665756
0.00046231156 	0.055206279 	0.025303529 	0.97286693
0.00048241206 	0.055206279 	0.025303529 	0.97286693
0.00050251256 	0.053722257 	0.010813112 	0.96921224
0.00052261307 	0.053722257 	0.010813112 	0.96921224
0.00054271357 	0.053722257 	0.010813112 	0.96921224
0.00056281407 	0.050912222 	-0.0032438723 	0.96657705
0.00058291457 	0.050912222 	-0.0032438723 	0.96657705
0.00060301508 	0.050912222 	-0.0032438723 	0.96657705
0.00062311558 	0.046880775 	-0.015773038 	0.9661248
0.00064321608 	0.046880775 	-0.015773038 	0.9661248
0.00066331658 	0.046880775 	-0.015773038 	0.9661248
0.00068341709 	0.042128192 	-0.026252978 	0.96855662
0.00070351759 	0.042128192 	-0.026252978 	0.96855662
0.00072361809 	0.037188021 	-0.03459878 	0.97345208
0.00074371859 	0.037188021 	-0.03459878 	0.97345208
0.0007638191 	0.037188021 	-0.03459878 	0.97345208
0.0007839196 	0.032614363 	-0.040890458 	0.97945089
0.0008040201 	0.032614363 	-0.040890458 	0.97945089
0.0008241206 	0.032614363 	-0.040890458 	0.97945089
0.00084422111 	0.02884515 	-0.04521048 	0.9850366
0.00086432161 	0.02884515 	-0.04521048 	0.9850366
0.00088442211 	0.02884515 	-0.04521048 	0.9850366
0.00090452261 	0.030546034 	-0.048929397 	0.99260467
0.00092462312 	0.030546034 	-0.048929397 	0.99260467
0.00094472362 	0.028326425 	-0.050766019 	0.99510051
0.00096482412 	0.024774256 	-0.048316815 	0.99167288
0.00098492462 	0.024774256 	-0.048316815 	0.99167288
0.0010050251 	0.024454054 	-0.04736749 	0.99262571
0.0010251256 	0.024454054 	-0.04736749 	0.99262571
0.0010452261 	0.024454054 	-0.04736749 	0.99262571
0.0010653266 	0.025123122 	-0.044930715 	0.99213644
0.0010854271 	0.025123122 	-0.044930715 	0.99213644
0.0011055276 	0.025123122 	-0.044930715 	0.99213644
0.0011256281 	0.026422203 	-0.042106057 	0.99049957
0.0011457286 	0.026422203 	-0.042106057 	0.99049957
0.0011658291 	0.026422203 	-0.042106057 	0.99049957
0.0011859296 	0.029930352 	-0.044626665 	0.98883316
0.0012060302 	0.028192108 	-0.040059465 	0.98783931
0.0012261307 	0.028192108 	-0.040059465 	0.98783931
0.0012462312 	0.030611203 	-0.039467928 	0.98437876
0.0012663317 	0.030611203 	-0.039467928 	0.98437876
0.0012864322 	0.030611203 	-0.039467928 	0.98437876
0.0013065327 	0.033917952 	-0.040245995 	0.98066407
0.0013266332 	0.034214269 	-0.045909311 	0.97832851
0.0013467337 	0.034214269 	-0.045909311 	0.97832851
0.0013668342 	0.037620455 	-0.048389287 	0.97334877
0.0013869347 	0.038136483 	-0.041741684 	0.97739117
0.0014070352 	0.038136483 	-0.041741684 	0.97739117
0.0014271357 	0.043036096 	-0.04315674 	0.97497189
0.0014472362 	0.043036096 	-0.04315674 	0.97497189
0.0014673367 	0.043036096 	-0.04315674 	0.97497189
0.0014874372 	0.048280983 	-0.043915668 	0.97329215
0.0015075377 	0.048280983 	-0.043915668 	0.97329215
0.0015276382 	0.053564518 	-0.043887191 	0.97193976
0.0015477387 	0.053564518 	-0.043887191 	0.97193976
0.0015678392 	0.053564518 	-0.043887191 	0.97193976
0.0015879397 	0.053869407 	-0.051819582 	0.96500691
0.0016080402 	0.058616616 	-0.043397173 	0.97068512
0.0016281407 	0.058616616 	-0.043397173 	0.97068512
0.0016482412 	0.063178682 	-0.042983583 	0.96970552
0.0016683417 	0.063178682 	-0.042983583 	0.96970552
0.0016884422 	0.067006712 	-0.042995198 	0.9693806
0.0017085427 	0.067006712 	-0.042995198 	0.9693806
0.0017286432 	0.067006712 	-0.042995198 	0.9693806
0.0017487437 	0.069921257 	-0.043345018 	0.96996396
0.0017688442 	0.069921257 	-0.043345018 	0.96996396
0.0017889447 	0.069921257 	-0.043345018 	0.96996396
0.0018090452 	0.071832843 	-0.043574175 	0.97143411
0.0018291457 	0.071832843 	-0.043574175 	0.97143411
0.0018492462 	0.072750694 	-0.043132895 	0.97356898
0.0018693467 	0.072750694 	-0.043132895 	0.97356898
0.0018894472 	0.072750694 	-0.043132895 	0.97356898
0.0019095477 	0.07278889 	-0.041644641 	0.97609045
0.0019296482 	0.07278889 	-0.041644641 	0.97609045
0.0019497487 	0.072142048 	-0.039011144 	0.97875687
0.0019698492 	0.072142048 	-0.039011144 	0.97875687
0.0019899497 	0.071051422 	-0.035374155 	0.98137988
0.0020100503 	0.071051422 	-0.035374155 	0.98137988
0.0020301508 	0.071051422 	-0.035374155 	0.98137988
0.0020502513 	0.069758216 	-0.031007005 	0.98380138
0.0020703518 	0.069758216 	-0.031007005 	0.98380138
0.0020904523 	0.068462262 	-0.026213283 	0.98587498
0.0021105528 	0.068462262 	-0.026213283 	0.98587498
0.0021306533 	0.068462262 	-0.026213283 	0.98587498
0.0021507538 	0.067299899 	-0.021263974 	0.98746556
0.0021708543 	0.067299899 	-0.021263974 	0.98746556
0.0021909548 	0.066332032 	-0.016366381 	0.98845788
0.0022110553 	0.066332032 	-0.016366381 	0.98845788
0.0022311558 	0.065554401 	-0.011661508 	0.98876707
0.0022512563 	0.065554401 	-0.011661508 	0.98876707
0.0022713568 	0.064912266 	-0.0072283502 	0.98834118
0.0022914573 	0.064912266 	-0.0072283502 	0.98834118
0.0023115578 	0.064912266 	-0.0072283502 	0.98834118
0.0023316583 	0.06431579 	-0.0030904858 	0.98715575
0.0023517588 	0.06431579 	-0.0030904858 	0.98715575
0.0023718593 	0.063661084 	0.00076767883 	0.98520864
0.0023919598 	0.063661084 	0.00076767883 	0.98520864
0.0024120603 	0.062843108 	0.0044115948 	0.98251735
0.0024321608 	0.062843108 	0.0044115948 	0.98251735
0.0024522613 	0.061769012 	0.0079034533 	0.97911871
0.0024723618 	0.061769012 	0.0079034533 	0.97911871
0.0024924623 	0.060362368 	0.011320826 	0.97507012
0.0025125628 	0.060362368 	0.011320826 	0.97507012
0.0025326633 	0.058566692 	0.014718704 	0.97045295
0.0025527638 	0.058566692 	0.014718704 	0.97045295
0.0025728643 	0.056354161 	0.018118032 	0.96534786
0.0025929648 	0.056354161 	0.018118032 	0.96534786
0.0026130653 	0.053731909 	0.021500236 	0.95980333
0.0026331658 	0.053731909 	0.021500236 	0.95980333
0.0026532663 	0.050749059 	0.024805965 	0.95380152
0.0026733668 	0.050749059 	0.024805965 	0.95380152
0.0026934673 	0.047490444 	0.027949953 	0.94726294
0.0027135678 	0.047490444 	0.027949953 	0.94726294
0.0027336683 	0.044054144 	0.030844637 	0.9401114
0.0027537688 	0.044054144 	0.030844637 	0.9401114
0.0027738693 	0.040521178 	0.033433035 	0.93238086
0.0027939698 	0.040521178 	0.033433035 	0.93238086
0.0028140704 	0.036931319 	0.035721144 	0.92430043
0.0028341709 	0.036931319 	0.035721144 	0.92430043
0.0028542714 	0.033283136 	0.037788797 	0.91628364
0.0028743719 	0.029561095 	0.039763765 	0.90880932
0.0028944724 	0.029561095 	0.039763765 	0.90880932
0.0029145729 	0.02577484 	0.041768214 	0.90225315
0.0029346734 	0.02577484 	0.041768214 	0.90225315
0.0029547739 	0.021988705 	0.043868119 	0.89676303
0.0029748744 	0.021988705 	0.043868119 	0.89676303
0.0029949749 	0.018324807 	0.04605512 	0.89223289
0.0030150754 	0.014940948 	0.048267952 	0.88836459
0.0030351759 	0.014940948 	0.048267952 	0.88836459
0.0030552764 	0.011995282 	0.05043016 	0.88477202
0.0030753769 	0.011995282 	0.05043016 	0.88477202
0.0030954774 	0.0096135315 	0.05247863 	0.88108448
0.0031155779 	0.0078683989 	0.054372192 	0.87702549
0.0031356784 	0.0078683989 	0.054372192 	0.87702549
0.0031557789 	0.0067743028 	0.056087361 	0.87245623
0.0031758794 	0.0067743028 	0.056087361 	0.87245623
0.0031959799 	0.0062931389 	0.057610238 	0.86737985
0.0032160804 	0.0063469111 	0.058934913 	0.86191052
0.0032361809 	0.0063469111 	0.058934913 	0.86191052
0.0032562814 	0.006831502 	0.060070498 	0.85622033
0.0032763819 	0.007624179 	0.061054659 	0.85048541
0.0032964824 	0.007624179 	0.061054659 	0.85048541
0.0033165829 	0.0085833185 	0.061971115 	0.8448521
0.0033366834 	0.0095408228 	0.062966519 	0.83943251
0.0033567839 	0.0095408228 	0.062966519 	0.83943251
0.0033768844 	0.010296606 	0.064258846 	0.83432503
0.0033969849 	0.010625422 	0.066125793 	0.82963774
0.0034170854 	0.010625422 	0.066125793 	0.82963774
0.0034371859 	0.010300611 	0.068860172 	0.82548831
0.0034572864 	0.0091393603 	0.072684596 	0.8219541
0.0034773869 	0.0070646495 	0.0776324 	0.81896323
0.0034974874 	0.0070646495 	0.0776324 	0.81896323
0.0035175879 	0.0041455882 	0.083422698 	0.81614122
0.0035376884 	0.00066487597 	0.089388679 	0.81266612
0.0035577889 	-0.0029727568 	0.094519274 	0.80720918
0.0035778894 	-0.0029727568 	0.094519274 	0.80720918
0.0035979899 	-0.0063155441 	0.097635167 	0.7980262
0.0036180905 	-0.0089139146 	0.097663199 	0.78326405
0.003638191 	-0.010482483 	0.093913503 	0.76145846
0.0036582915 	-0.010482483 	0.093913503 	0.76145846
0.003678392 	-0.010958406 	0.086270104 	0.73209828
0.0036984925 	-0.010499233 	0.075254471 	0.69596161
0.003718593 	-0.0094079052 	0.061976121 	0.65490446
0.0037386935 	-0.0080102944 	0.0479852 	0.61109892
0.003758794 	-0.0065598792 	0.035011724 	0.56620026
0.0037788945 	-0.0065598792 	0.035011724 	0.56620026
0.003798995 	-0.0052162609 	0.024593215 	0.52098498
0.0038190955 	-0.0040657324 	0.017673752 	0.47548508
0.003839196 	-0.0031368888 	0.014324566 	0.42925081
0.0038592965 	-0.0024018973 	0.013715476 	0.38155288
0.003879397 	-0.0017989329 	0.014408801 	0.33160738
0.0038994975 	-0.0012763172 	0.014902209 	0.27878035
0.003919598 	-0.00081885516 	0.014194982 	0.22264737
0.0039396985 	-0.00044065094 	0.012037585 	0.16295445
0.003959799 	-0.00016580404 	0.0086345901 	0.099725649
0.0039798995 	-1.7958972e-05 	0.0038401659 	0.033653747
0.004 	-1.7958972e-05 	0.0038401659 	0.033653747
