0 	0.034041984 	-0.01293337 	0.96649852
2.0100503e-05 	0.011574275 	0.036081538 	0.96021694
4.0201005e-05 	0.011574275 	0.036081538 	0.96021694
6.0301508e-05 	-0.0073230941 	0.03831901 	0.95274026
8.040201e-05 	-0.0073230941 	0.03831901 	0.95274026
0.00010050251 	-0.0073230941 	0.03831901 	0.95274026
0.00012060302 	-0.012608795 	0.037601851 	0.94509688
0.00014070352 	-0.012608795 	0.037601851 	0.94509688
0.00016080402 	-0.012608795 	0.037601851 	0.94509688
0.00018090452 	-0.014037232 	0.03713913 	0.93855069
0.00020100503 	-0.014037232 	0.03713913 	0.93855069
0.00022110553 	-0.014037232 	0.03713913 	0.93855069
0.00024120603 	-0.013360241 	0.036748594 	0.93406922
0.00026130653 	-0.013360241 	0.036748594 	0.93406922
0.00028140704 	-0.011296581 	0.036152602 	0.93207602
0.00030150754 	-0.011296581 	0.036152602 	0.93207602
0.00032160804 	-0.011296581 	0.036152602 	0.93207602
0.00034170854 	-0.0083144338 	0.035092234 	0.93250349
0.00036180905 	-0.0083144338 	0.035092234 	0.93250349
0.00038190955 	-0.0083144338 	0.035092234 	0.93250349
0.00040201005 	-0.0047105083 	0.033423869 	0.93496805
0.00042211055 	-0.0047105083 	0.033423869 	0.93496805
0.00044221106 	-0.0047105083 	0.033423869 	0.93496805
0.00046231156 	-0.00064485669 	0.031182773 	0.93889948
0.00048241206 	-0.00064485669 	0.031182773 	0.93889948
0.00050251256 	0.0038111106 	0.028584045 	0.94365734
0.00052261307 	0.0038111106 	0.028584045 	0.94365734
0.00054271357 	0.0038111106 	0.028584045 	0.94365734
0.00056281407 	0.0086192588 	0.025956371 	0.94865817
0.00058291457 	0.0086192588 	0.025956371 	0.94865817
0.00060301508 	0.0086192588 	0.025956371 	0.94865817
0.00062311558 	0.013739543 	0.023623214 	0.9534739
0.00064321608 	0.013739543 	0.023623214 	0.9534739
0.00066331658 	0.013739543 	0.023623214 	0.9534739
0.00068341709 	0.019112397 	0.02182152 	0.95786499
0.00070351759 	0.019112397 	0.02182152 	0.95786499
0.00072361809 	0.024624267 	0.020731549 	0.96173688
0.00074371859 	0.024624267 	0.020731549 	0.96173688
0.0007638191 	0.024624267 	0.020731549 	0.96173688
0.0007839196 	0.030084663 	0.020475252 	0.96508859
0.0008040201 	0.030084663 	0.020475252 	0.96508859
0.0008241206 	0.030084663 	0.020475252 	0.96508859
0.00084422111 	0.035276087 	0.021114184 	0.96795384
0.00086432161 	0.035276087 	0.021114184 	0.96795384
0.00088442211 	0.035276087 	0.021114184 	0.96795384
0.00090452261 	0.040012012 	0.022575735 	0.97038162
0.00092462312 	0.040012012 	0.022575735 	0.97038162
0.00094472362 	0.044105625 	0.024684242 	0.97248955
0.00096482412 	0.044105625 	0.024684242 	0.97248955
0.00098492462 	0.044105625 	0.024684242 	0.97248955
0.0010050251 	0.044245503 	0.035841525 	0.96822856
0.0010251256 	0.044245503 	0.035841525 	0.96822856
0.0010452261 	0.044245503 	0.035841525 	0.96822856
0.0010653266 	0.046502264 	0.037038564 	0.97072684
0.0010854271 	0.046502264 	0.037038564 	0.97072684
0.0011055276 	0.046502264 	0.037038564 	0.97072684
0.0011256281 	0.047726105 	0.037975177 	0.97292651
0.0011457286 	0.047726105 	0.037975177 	0.97292651
0.0011658291 	0.047726105 	0.037975177 	0.97292651
0.0011859296 	0.047882584 	0.038499878 	0.97530195
0.0012060302 	0.047882584 	0.038499878 	0.97530195
0.0012261307 	0.047882584 	0.038499878 	0.97530195
0.0012462312 	0.046938264 	0.038463596 	0.97827126
0.0012663317 	0.046938264 	0.038463596 	0.97827126
0.0012864322 	0.046938264 	0.038463596 	0.97827126
0.0013065327 	0.044895168 	0.037831865 	0.98190695
0.0013266332 	0.044895168 	0.037831865 	0.98190695
0.0013467337 	0.044895168 	0.037831865 	0.98190695
0.0013668342 	0.041823375 	0.036813566 	0.98565304
0.0013869347 	0.041823375 	0.036813566 	0.98565304
0.0014070352 	0.041823375 	0.036813566 	0.98565304
0.0014271357 	0.03789383 	0.035784805 	0.98844074
0.0014472362 	0.03789383 	0.035784805 	0.98844074
0.0014673367 	0.03789383 	0.035784805 	0.98844074
0.0014874372 	0.033420848 	0.034992618 	0.9892819
0.0015075377 	0.033420848 	0.034992618 	0.9892819
0.0015276382 	0.028844845 	0.034309376 	0.98782302
0.0015477387 	0.028844845 	0.034309376 	0.98782302
0.0015678392 	0.028844845 	0.034309376 	0.98782302
0.0015879397 	0.024633394 	0.033302204 	0.98437756
0.0016080402 	0.024633394 	0.033302204 	0.98437756
0.0016281407 	0.024633394 	0.033302204 	0.98437756
0.0016482412 	0.021146359 	0.031690429 	0.97960456
0.0016683417 	0.021146359 	0.031690429 	0.97960456
0.0016884422 	0.018538763 	0.029819735 	0.97420754
0.0017085427 	0.018538763 	0.029819735 	0.97420754
0.0017286432 	0.018538763 	0.029819735 	0.97420754
0.0017487437 	0.016747451 	0.028577794 	0.96891674
0.0017688442 	0.016747451 	0.028577794 	0.96891674
0.0017889447 	0.016747451 	0.028577794 	0.96891674
0.0018090452 	0.015603411 	0.028739158 	0.96465396
0.0018291457 	0.015603411 	0.028739158 	0.96465396
0.0018492462 	0.014965894 	0.030428776 	0.96238136
0.0018693467 	0.014965894 	0.030428776 	0.96238136
0.0018894472 	0.014965894 	0.030428776 	0.96238136
0.0019095477 	0.01477194 	0.03316082 	0.96258815
0.0019296482 	0.01477194 	0.03316082 	0.96258815
0.0019497487 	0.01500877 	0.036173917 	0.96501336
0.0019698492 	0.01500877 	0.036173917 	0.96501336
0.0019899497 	0.01500877 	0.036173917 	0.96501336
0.0020100503 	0.015704835 	0.038785728 	0.96886239
0.0020301508 	0.015704835 	0.038785728 	0.96886239
0.0020502513 	0.016940839 	0.040597376 	0.97323973
0.0020703518 	0.016940839 	0.040597376 	0.97323973
0.0020904523 	0.018813774 	0.04151323 	0.97746859
0.0021105528 	0.018813774 	0.04151323 	0.97746859
0.0021306533 	0.018813774 	0.04151323 	0.97746859
0.0021507538 	0.021431871 	0.041627843 	0.98119591
0.0021708543 	0.021431871 	0.041627843 	0.98119591
0.0021909548 	0.024883459 	0.041118904 	0.98431251
0.0022110553 	0.024883459 	0.041118904 	0.98431251
0.0022311558 	0.029189321 	0.040159284 	0.9868072
0.0022512563 	0.029189321 	0.040159284 	0.9868072
0.0022713568 	0.034294779 	0.038889947 	0.98867719
0.0022914573 	0.034294779 	0.038889947 	0.98867719
0.0023115578 	0.034294779 	0.038889947 	0.98867719
0.0023316583 	0.040089328 	0.037414642 	0.98990426
0.0023517588 	0.040089328 	0.037414642 	0.98990426
0.0023718593 	0.046377665 	0.035808565 	0.9904987
0.0023919598 	0.046377665 	0.035808565 	0.9904987
0.0024120603 	0.052884706 	0.034124122 	0.99052402
0.0024321608 	0.052884706 	0.034124122 	0.99052402
0.0024522613 	0.059323026 	0.03239595 	0.99006173
0.0024723618 	0.059323026 	0.03239595 	0.99006173
0.0024924623 	0.065397222 	0.030658223 	0.98919623
0.0025125628 	0.065397222 	0.030658223 	0.98919623
0.0025326633 	0.070825172 	0.028914674 	0.98799433
0.0025527638 	0.070825172 	0.028914674 	0.98799433
0.0025728643 	0.075372541 	0.027157049 	0.98645513
0.0025929648 	0.075372541 	0.027157049 	0.98645513
0.0026130653 	0.078828474 	0.0253452 	0.98452706
0.0026331658 	0.078828474 	0.0253452 	0.98452706
0.0026532663 	0.081011276 	0.023438896 	0.9821565
0.0026733668 	0.081011276 	0.023438896 	0.9821565
0.0026934673 	0.081803813 	0.021364995 	0.97927818
0.0027135678 	0.081803813 	0.021364995 	0.97927818
0.0027336683 	0.081092002 	0.019016855 	0.97581516
0.0027537688 	0.081092002 	0.019016855 	0.97581516
0.0027738693 	0.078844023 	0.016248445 	0.97169725
0.0027939698 	0.078844023 	0.016248445 	0.97169725
0.0028140704 	0.075188408 	0.012914976 	0.96688847
0.0028341709 	0.075188408 	0.012914976 	0.96688847
0.0028542714 	0.070295008 	0.0089133394 	0.96138652
0.0028743719 	0.064304095 	0.0043090248 	0.95534756
0.0028944724 	0.064304095 	0.0043090248 	0.95534756
0.0029145729 	0.057400942 	-0.00050130408 	0.94924325
0.0029346734 	0.057400942 	-0.00050130408 	0.94924325
0.0029547739 	0.049723078 	-0.0048093848 	0.94391907
0.0029748744 	0.049723078 	-0.0048093848 	0.94391907
0.0029949749 	0.041271908 	-0.0079095849 	0.94053856
0.0030150754 	0.032081149 	-0.0094854135 	0.94025372
0.0030351759 	0.032081149 	-0.0094854135 	0.94025372
0.0030552764 	0.022300701 	-0.0097742758 	0.94376712
0.0030753769 	0.022300701 	-0.0097742758 	0.94376712
0.0030954774 	0.012247805 	-0.0094050984 	0.95095006
0.0031155779 	0.0024306195 	-0.0090717617 	0.96069787
0.0031356784 	0.0024306195 	-0.0090717617 	0.96069787
0.0031557789 	-0.0065069278 	-0.0092567907 	0.97109692
0.0031758794 	-0.0065069278 	-0.0092567907 	0.97109692
0.0031959799 	-0.013920746 	-0.010126222 	0.97983424
0.0032160804 	-0.019295879 	-0.011573742 	0.98471828
0.0032361809 	-0.019295879 	-0.011573742 	0.98471828
0.0032562814 	-0.022346822 	-0.013336954 	0.98414157
0.0032763819 	-0.023062746 	-0.015115773 	0.97735452
0.0032964824 	-0.023062746 	-0.015115773 	0.97735452
0.0033165829 	-0.021690025 	-0.016650305 	0.96450403
0.0033366834 	-0.018667902 	-0.01776486 	0.94647452
0.0033567839 	-0.018667902 	-0.01776486 	0.94647452
0.0033768844 	-0.014539684 	-0.01837422 	0.92462057
0.0033969849 	-0.0098587401 	-0.018476539 	0.90046657
0.0034170854 	-0.0098587401 	-0.018476539 	0.90046657
0.0034371859 	-0.005112237 	-0.018137979 	0.87545339
0.0034572864 	-0.00067551501 	-0.017474093 	0.85076412
0.0034773869 	0.0031785578 	-0.016631748 	0.82723922
0.0034974874 	0.0031785578 	-0.016631748 	0.82723922
0.0035175879 	0.0063123007 	-0.01577148 	0.80537228
0.0035376884 	0.0086940965 	-0.01505276 	0.78534639
0.0035577889 	0.010337453 	-0.014620693 	0.76710494
0.0035778894 	0.010337453 	-0.014620693 	0.76710494
0.0035979899 	0.011299808 	-0.014597325 	0.75041152
0.0036180905 	0.01166097 	-0.015072067 	0.73488703
0.003638191 	0.011510737 	-0.016094041 	0.72001614
0.0036582915 	0.011510737 	-0.016094041 	0.72001614
0.003678392 	0.010943423 	-0.01766653 	0.70513109
0.0036984925 	0.010055882 	-0.019745188 	0.68938547
0.003718593 	0.0089450218 	-0.02223835 	0.67173823
0.0037386935 	0.0077032727 	-0.025010137 	0.65097026
0.003758794 	0.0064131803 	-0.027888379 	0.6257524
0.0037788945 	0.0064131803 	-0.027888379 	0.6257524
0.003798995 	0.005143823 	-0.030662679 	0.59477442
0.0038190955 	0.0039507536 	-0.033084596 	0.55692774
0.003839196 	0.0028804381 	-0.034860747 	0.51151182
0.0038592965 	0.0019733149 	-0.035649145 	0.45841153
0.003879397 	0.0012591592 	-0.035080337 	0.39818035
0.0038994975 	0.00074613561 	-0.032820378 	0.3319762
0.003919598 	0.00041270878 	-0.028658703 	0.26134261
0.0039396985 	0.00021238017 	-0.02256772 	0.18789559
0.003959799 	9.3051264e-05 	-0.014693388 	0.11302545
0.0039798995 	1.7045003e-05 	-0.0052990176 	0.037732533
0.004 	1.7045003e-05 	-0.0052990176 	0.037732533
