0 	-0.024936183 	-0.014563884 	1.0489426
5.5555625e-05 	-0.028325685 	-0.0021860237 	1.0512682
0.00011111111 	-0.027879555 	0.00056080693 	1.0533061
0.00016666667 	-0.027326212 	0.0012238079 	1.0552543
0.00022222222 	-0.026777302 	0.001381883 	1.0572336
0.00027777778 	-0.026197606 	0.0015946135 	1.0592891
0.00033333333 	-0.025564558 	0.002104422 	1.0614172
0.00038888889 	-0.024887175 	0.0029957232 	1.0635857
0.00044444444 	-0.024200729 	0.0042587862 	1.0657365
0.0005 	-0.023571601 	0.0058093351 	1.0677754
0.00055555556 	-0.023100163 	0.0075073788 	1.0695573
0.00061111111 	-0.022917725 	0.0091485074 	1.0708831
0.00066666667 	-0.023169223 	0.010469144 	1.0714976
0.00072222222 	-0.023997288 	0.011166301 	1.0710935
0.00077777778 	-0.025479971 	0.010924319 	1.069311
0.00083333333 	-0.027580381 	0.009458161 	1.0657853
0.00088888889 	-0.030096471 	0.0064514839 	1.0602422
0.00094444444 	-0.032699258 	0.0017722972 	1.0526529
0.001 	-0.035058343 	-0.0047394833 	1.0427789
0.0010617199 	-0.037031264 	-0.013011172 	1.0313181
0.0011225874 	-0.038343261 	-0.021807085 	1.0198873
0.0011826143 	-0.039293708 	-0.030233678 	1.0094897
0.0012418122 	-0.040135387 	-0.037802167 	1.0007207
0.0013001926 	-0.040994335 	-0.044434774 	0.99368841
0.0013577668 	-0.041901616 	-0.050321653 	0.9882256
0.0014145458 	-0.04283047 	-0.055684618 	0.98415992
0.0014705407 	-0.043786988 	-0.060508073 	0.98151029
0.0015257623 	-0.044870175 	-0.064384218 	0.98045906
0.0015802213 	-0.046294825 	-0.066715551 	0.98107469
0.0016339282 	-0.048420466 	-0.067121297 	0.98291997
0.0016868934 	-0.051726232 	-0.065749887 	0.98476318
0.0017391271 	-0.056754482 	-0.063235418 	0.98466647
0.0017906395 	-0.064019228 	-0.060259136 	0.98033971
0.0018414404 	-0.073636963 	-0.05692251 	0.96954984
0.0018915398 	-0.084806856 	-0.052667321 	0.95095483
0.0019409473 	-0.095811588 	-0.047216868 	0.92552246
0.0019896725 	-0.10471765 	-0.041524538 	0.89694007
0.0020377248 	-0.11009134 	-0.037212501 	0.86944067
0.0020851134 	-0.11119739 	-0.035020565 	0.84512027
0.0021318476 	-0.10803523 	-0.034350662 	0.82379949
0.0021779364 	-0.10146666 	-0.034243995 	0.8047751
0.0022233887 	-0.09282743 	-0.034142362 	0.7877778
0.0022682133 	-0.083403732 	-0.033846222 	0.77284498
0.0023124189 	-0.074308041 	-0.033513198 	0.76000782
0.0023560139 	-0.066430789 	-0.033568204 	0.74885375
0.0023990069 	-0.060350784 	-0.034316399 	0.73838949
0.0024414062 	-0.056252314 	-0.03564089 	0.72770885
0.0024832199 	-0.054002719 	-0.037138453 	0.71662953
0.0025244562 	-0.053332623 	-0.03844979 	0.70572141
0.002565123 	-0.053905787 	-0.039244925 	0.69588032
0.0026052281 	-0.055334821 	-0.03924255 	0.68808557
0.0026447794 	-0.057277668 	-0.038301027 	0.68318761
0.0026837845 	-0.05945204 	-0.036402386 	0.68170258
0.0027222509 	-0.061628325 	-0.03363112 	0.68379859
0.0027601861 	-0.063633959 	-0.030092275 	0.68931747
0.0027975974 	-0.065342454 	-0.025868377 	0.69783926
0.002834492 	-0.066685851 	-0.020989378 	0.70873696
0.0028708772 	-0.067665243 	-0.015421756 	0.72126234
0.0029067598 	-0.068309444 	-0.0090784093 	0.73463013
0.0029421469 	-0.068628733 	-0.0018179827 	0.74812167
0.0029770452 	-0.068694134 	0.0064515813 	0.76119106
0.0030114616 	-0.068548247 	0.015768627 	0.77339697
0.0030454028 	-0.068042065 	0.026135113 	0.78438282
0.0030788752 	-0.066980583 	0.037431589 	0.79380176
0.0031118853 	-0.065158004 	0.049369774 	0.80125255
0.0031444395 	-0.062368916 	0.061463936 	0.80626924
0.0031765442 	-0.05845136 	0.073066129 	0.80834193
0.0032082055 	-0.053337289 	0.083483712 	0.80698985
0.0032394295 	-0.047089537 	0.092126173 	0.80188458
0.0032702223 	-0.03989958 	0.098633105 	0.79298697
0.0033005899 	-0.032039972 	0.10290805 	0.78064211
0.0033305381 	-0.023824286 	0.1050473 	0.76556942
0.0033600727 	-0.01557112 	0.10524038 	0.74876136
0.0033891994 	-0.0075752288 	0.1036942 	0.73134145
0.0034179239 	-0.00011550015 	0.10060601 	0.71441378
0.0034462517 	0.0065692921 	0.096180521 	0.69890988
0.0034741882 	0.012296737 	0.090639166 	0.68547942
0.003501739 	0.016945831 	0.08423082 	0.67443094
0.0035289093 	0.020466373 	0.077251249 	0.66572449
0.0035557043 	0.022871613 	0.070062606 	0.65899688
0.0035821293 	0.024230426 	0.063094459 	0.65360228
0.0036081894 	0.024659665 	0.056803565 	0.64867997
0.0036338895 	0.024311818 	0.05158409 	0.64326136
0.0036592348 	0.02335523 	0.047640902 	0.63640121
0.00368423 	0.02195149 	0.044862455 	0.62725583
0.00370888 	0.0202368 	0.042758569 	0.61500367
0.0037331896 	0.018308655 	0.040555322 	0.59858893
0.0037571635 	0.0162182 	0.037486653 	0.57648518
0.0037808063 	0.013981175 	0.033134204 	0.54679635
0.0038041226 	0.011624308 	0.027512297 	0.50783487
0.0038271169 	0.0092448128 	0.02085031 	0.45898097
0.0038497936 	0.0069990816 	0.013470289 	0.4013772
0.0038721572 	0.0050247117 	0.0059816913 	0.3378919
0.0038942119 	0.0033767555 	-0.00060019192 	0.27214918
0.003915962 	0.0020492015 	-0.0051636135 	0.207239
0.0039374118 	0.001036977 	-0.0069783997 	0.14494352
0.0039585653 	0.00035614709 	-0.005938401 	0.085632178
0.0039794267 	2.8387633e-05 	-0.0025024175 	0.028520623
0.004 	2.8387633e-05 	-0.0025024175 	0.028520623
