0 	0.0238613 	0.014559425 	1.0276766
5.5555556e-05 	-0.029955858 	0.0071464331 	1.0165505
0.00011111111 	-0.03425457 	2.6047557e-05 	1.0130488
0.00016666667 	-0.038051561 	-0.0047961564 	1.0116937
0.00022222222 	-0.041732696 	-0.0082919827 	1.0125998
0.00027777778 	-0.045081912 	-0.01060058 	1.0152267
0.00033333333 	-0.047754385 	-0.011706839 	1.0184336
0.00038888889 	-0.049433922 	-0.011745403 	1.020874
0.00044444444 	-0.049939201 	-0.011141204 	1.0215118
0.0005 	-0.049283437 	-0.010591879 	1.019926
0.00055555556 	-0.047683808 	-0.010950432 	1.016273
0.00061111111 	-0.045523478 	-0.013072032 	1.0110114
0.00066666667 	-0.043274949 	-0.017632748 	1.0045446
0.00072222222 	-0.041398058 	-0.024929101 	0.99690447
0.00077777778 	-0.040242574 	-0.034719761 	0.98760101
0.00083333333 	-0.039998266 	-0.046160576 	0.97580201
0.00088888889 	-0.040766169 	-0.057937906 	0.96089141
0.00094444444 	-0.042550934 	-0.068663013 	0.94303188
0.001 	-0.044992331 	-0.077881692 	0.92186387
0.0010617451 	-0.04814211 	-0.084232127 	0.89823615
0.0011226367 	-0.050074822 	-0.088306644 	0.87506137
0.0011826866 	-0.05071594 	-0.091419614 	0.85287135
0.0012419064 	-0.049826993 	-0.094503218 	0.83354045
0.0013003077 	-0.047989615 	-0.097350085 	0.81874642
0.0013579017 	-0.045989011 	-0.098557913 	0.80933641
0.0014146996 	-0.044680729 	-0.096755916 	0.80487873
0.0014707124 	-0.044510549 	-0.091890807 	0.80433159
0.0015259509 	-0.045537381 	-0.085181479 	0.80673444
0.001580426 	-0.047747374 	-0.077753853 	0.81166316
0.001634148 	-0.05136326 	-0.069481533 	0.8194426
0.0016871274 	-0.056541983 	-0.059117565 	0.82979919
0.0017393745 	-0.062657452 	-0.045776741 	0.83899114
0.0017908994 	-0.068527123 	-0.03102839 	0.83997676
0.0018417121 	-0.073078965 	-0.019979777 	0.82624387
0.0018918224 	-0.075240135 	-0.019238511 	0.79453695
0.0019412401 	-0.074625565 	-0.031642745 	0.75002094
0.0019899746 	-0.073282525 	-0.05125582 	0.71073412
0.0020380356 	-0.073831717 	-0.067299311 	0.69097624
0.0020854322 	-0.076418141 	-0.074855447 	0.68476652
0.0021321736 	-0.080347 	-0.076022024 	0.68100163
0.002178269 	-0.085224306 	-0.073493867 	0.67681254
0.0022237272 	-0.090750766 	-0.068212471 	0.67350946
0.002268557 	-0.096344827 	-0.060148955 	0.67149646
0.0023127672 	-0.10126039 	-0.049416698 	0.67027165
0.0023563662 	-0.10486945 	-0.0366107 	0.6691014
0.0023993626 	-0.10693269 	-0.022556641 	0.66724782
0.0024417647 	-0.10760831 	-0.008083843 	0.6642779
0.0024835806 	-0.10697153 	0.0060553315 	0.6601016
0.0025248186 	-0.10531415 	0.019030566 	0.65478579
0.0025654865 	-0.10318352 	0.030296212 	0.64849419
0.0026055923 	-0.10086077 	0.039525491 	0.64147904
0.0026451437 	-0.098464938 	0.046642004 	0.63409135
0.0026841484 	-0.09602667 	0.051778548 	0.62674499
0.002722614 	-0.093549599 	0.055187158 	0.61986322
0.0027605478 	-0.091019706 	0.057171097 	0.61380517
0.0027979573 	-0.088423306 	0.058032194 	0.60879697
0.0028348498 	-0.085762547 	0.058062455 	0.60490387
0.0028712322 	-0.083071742 	0.057533471 	0.60203413
0.0029071118 	-0.08040692 	0.056669368 	0.60000484
0.0029424953 	-0.077810492 	0.055622886 	0.59863422
0.0029773898 	-0.075295145 	0.05449884 	0.59777799
0.003011802 	-0.072865473 	0.053391203 	0.59730813
0.0030457385 	-0.070527174 	0.052396091 	0.59710394
0.0030792059 	-0.068285049 	0.051598568 	0.5970618
0.0031122107 	-0.066145828 	0.051058968 	0.59709527
0.0031447592 	-0.064111625 	0.050824809 	0.59712306
0.0031768579 	-0.062177757 	0.050899932 	0.59705486
0.0032085129 	-0.06033152 	0.051278316 	0.59678703
0.0032397303 	-0.058542548 	0.051926659 	0.59620636
0.0032705162 	-0.056768865 	0.052773855 	0.5951871
0.0033008765 	-0.054959551 	0.053742379 	0.59358931
0.0033308172 	-0.053057041 	0.054744824 	0.59125773
0.0033603441 	-0.051000774 	0.055687574 	0.58802301
0.0033894627 	-0.048731856 	0.056475256 	0.58370436
0.0034181789 	-0.046199855 	0.057018914 	0.57811486
0.0034464982 	-0.043367681 	0.057234731 	0.57107188
0.003474426 	-0.040217425 	0.05705051 	0.56240869
0.0035019678 	-0.036756638 	0.056409053 	0.55198951
0.0035291288 	-0.033022441 	0.05527591 	0.53972572
0.0035559144 	-0.029082756 	0.053645288 	0.52558985
0.0035823298 	-0.025033988 	0.051546706 	0.50962413
0.0036083801 	-0.020993598 	0.049048119 	0.49194011
0.0036340702 	-0.017088698 	0.046252545 	0.47270702
0.0036594053 	-0.013445135 	0.043286644 	0.45212932
0.0036843901 	-0.010172173 	0.040297159 	0.43041664
0.0037090296 	-0.0073508465 	0.0374131 	0.40774646
0.0037333285 	-0.0050271685 	0.034735496 	0.38422816
0.0037572915 	-0.0032064449 	0.032318686 	0.35987305
0.0037809233 	-0.0018538091 	0.030159864 	0.3345753
0.0038042285 	-0.00090206252 	0.028198403 	0.30811201
0.0038272115 	-0.00026670266 	0.026325318 	0.28016804
0.0038498768 	0.00013516009 	0.024401386 	0.25038486
0.0038722288 	0.00036877189 	0.022277975 	0.21841989
0.0038942718 	0.00047382432 	0.019809446 	0.18399911
0.0039160102 	0.00046884294 	0.016846541 	0.14695709
0.003937448 	0.0003671397 	0.013209525 	0.10728478
0.0039585896 	0.00020103783 	0.008676036 	0.065245588
0.0039794389 	3.2147442e-05 	0.0030975342 	0.021673441
0.004 	8.5394285e-05 	0.0032071918 	0.025723676
