0 	0.020379371 	-0.031210305 	1.0229213
5.5555556e-05 	0.022892283 	0.033992472 	1.007715
0.00011111111 	0.020653038 	0.037023297 	1.0015961
0.00016666667 	0.020948698 	0.038272858 	0.99639869
0.00022222222 	0.022412434 	0.03877683 	0.99196153
0.00027777778 	0.02461908 	0.038786899 	0.98807095
0.00033333333 	0.027391395 	0.038367118 	0.98449123
0.00038888889 	0.03064435 	0.037509569 	0.98099257
0.00044444444 	0.034321711 	0.036179888 	0.97737424
0.0005 	0.038368056 	0.034326677 	0.9734911
0.00055555556 	0.042709848 	0.031903697 	0.96924338
0.00061111111 	0.047217895 	0.028855817 	0.96455338
0.00066666667 	0.051674673 	0.025122778 	0.95933192
0.00072222222 	0.055776917 	0.020707933 	0.95350713
0.00077777778 	0.05914509 	0.015778563 	0.947118
0.00083333333 	0.061481847 	0.010778353 	0.94037065
0.00088888889 	0.062576185 	0.0062614516 	0.93358856
0.00094444444 	0.062480811 	0.0028277759 	0.92720906
0.001 	0.06111003 	0.00054202401 	0.92123295
0.0010617451 	0.05842475 	-0.00021354097 	0.91674481
0.0011226367 	0.054603582 	0.00050888876 	0.91451938
0.0011826866 	0.0494866 	0.0021376637 	0.9142952
0.0012419064 	0.043148973 	0.0039896959 	0.91422748
0.0013003077 	0.036157101 	0.0057622122 	0.91055765
0.0013579017 	0.029194012 	0.0074143756 	0.89984137
0.0014146996 	0.022380845 	0.0088128094 	0.88278355
0.0014707124 	0.015795067 	0.010115085 	0.86448323
0.0015259509 	0.010091608 	0.012149557 	0.84998787
0.001580426 	0.0060042944 	0.015525288 	0.84077034
0.001634148 	0.0038246349 	0.020101204 	0.83574918
0.0016871274 	0.0032751904 	0.025284581 	0.83333977
0.0017393745 	0.0038883048 	0.030489958 	0.83247121
0.0017908994 	0.0052979791 	0.035391073 	0.83256135
0.0018417121 	0.0072644376 	0.039923407 	0.83322444
0.0018918224 	0.009672167 	0.044053769 	0.8340193
0.0019412401 	0.0125299 	0.047519005 	0.83441433
0.0019899746 	0.015845463 	0.0497644 	0.83393016
0.0020380356 	0.019503642 	0.050012089 	0.83237461
0.0020854322 	0.023184679 	0.047431569 	0.8300383
0.0021321736 	0.026423903 	0.041435263 	0.82774535
0.002178269 	0.028745814 	0.03196837 	0.82657941
0.0022237272 	0.029767372 	0.019472513 	0.82744102
0.002268557 	0.029461247 	0.0050025689 	0.83064096
0.0023127672 	0.027941395 	-0.010008444 	0.83565801
0.0023563662 	0.025523291 	-0.024413874 	0.84129212
0.0023993626 	0.022812426 	-0.037535895 	0.8464095
0.0024417647 	0.020302811 	-0.049016538 	0.85030445
0.0024835806 	0.018329787 	-0.058745755 	0.85279283
0.0025248186 	0.017156612 	-0.067104763 	0.85428023
0.0025654865 	0.016807051 	-0.075174513 	0.85608125
0.0026055923 	0.016947314 	-0.084499374 	0.8603553
0.0026451437 	0.01699249 	-0.096277286 	0.8691226
0.0026841484 	0.016259818 	-0.11056565 	0.88294635
0.002722614 	0.014122626 	-0.12601216 	0.90008406
0.0027605478 	0.010319542 	-0.14049275 	0.91664429
0.0027979573 	0.0052400353 	-0.15221208 	0.92793362
0.0028348498 	-0.00012825206 	-0.16027402 	0.93041267
0.0028712322 	-0.0048867741 	-0.16440067 	0.92307676
0.0029071118 	-0.008773381 	-0.16450277 	0.90757632
0.0029424953 	-0.012061582 	-0.16057899 	0.88722027
0.0029773898 	-0.015274266 	-0.15288957 	0.86550752
0.003011802 	-0.018739775 	-0.14211413 	0.84480318
0.0030457385 	-0.022234928 	-0.12941836 	0.8257936
0.0030792059 	-0.025076646 	-0.11634997 	0.80805468
0.0031122107 	-0.026651752 	-0.10435235 	0.79123905
0.0031447592 	-0.026836206 	-0.094147828 	0.77575279
0.0031768579 	-0.025992227 	-0.085622143 	0.76243398
0.0032085129 	-0.024682106 	-0.078220823 	0.75191022
0.0032397303 	-0.023404793 	-0.07135499 	0.74428722
0.0032705162 	-0.0224849 	-0.06458423 	0.73921553
0.0033008765 	-0.022067345 	-0.057636409 	0.73611181
0.0033308172 	-0.022163447 	-0.050380201 	0.73439384
0.0033603441 	-0.02270015 	-0.042789625 	0.73363198
0.0033894627 	-0.023560098 	-0.034920157 	0.733595
0.0034181789 	-0.024600943 	-0.026891134 	0.73420037
0.0034464982 	-0.025659534 	-0.018871028 	0.7354061
0.003474426 	-0.02655656 	-0.011065537 	0.73709615
0.0035019678 	-0.027108944 	-0.0037124401 	0.73899482
0.0035291288 	-0.027127533 	0.0029200064 	0.74063059
0.0035559144 	-0.026472306 	0.0085375676 	0.74134579
0.0035823298 	-0.025061018 	0.012825058 	0.7403384
0.0036083801 	-0.022834013 	0.015500782 	0.73676003
0.0036340702 	-0.019790735 	0.016371087 	0.72983922
0.0036594053 	-0.016058566 	0.015390077 	0.71897353
0.0036843901 	-0.011891141 	0.012708807 	0.70374869
0.0037090296 	-0.0076241252 	0.0087140914 	0.68401552
0.0037333285 	-0.0036527387 	0.0040143184 	0.65981907
0.0037572915 	-0.00037367136 	-0.00059400902 	0.63124953
0.0037809233 	0.0019049694 	-0.0041887325 	0.59820359
0.0038042285 	0.0030476828 	-0.0058546126 	0.56012006
0.0038272115 	0.0031497039 	-0.0049543747 	0.51586824
0.0038498768 	0.002519508 	-0.0015104397 	0.46406714
0.0038722288 	0.0015681223 	0.0035547092 	0.40379343
0.0038942718 	0.00068145825 	0.0086072738 	0.33559841
0.0039160102 	9.1180189e-05 	0.011917127 	0.26176427
0.003937448 	-0.00015725313 	0.012315779 	0.18553674
0.0039585896 	-0.00015341548 	0.0094852001 	0.10982359
0.0039794389 	-3.0337052e-05 	0.0038376866 	0.036159043
0.004 	2.5915721e-06 	0.0014940848 	0.044301154
