0 	0.013750661 	-0.00062402237 	1.0819107
2.0100503e-05 	0.0019404129 	0.013189276 	1.0821263
4.0201005e-05 	0.0019404129 	0.013189276 	1.0821263
6.0301508e-05 	-0.0026580461 	0.01297018 	1.0814892
8.040201e-05 	-0.0026580461 	0.01297018 	1.0814892
0.00010050251 	-0.0026580461 	0.01297018 	1.0814892
0.00012060302 	-0.0028340812 	0.013217289 	1.0800886
0.00014070352 	-0.0028340812 	0.013217289 	1.0800886
0.00016080402 	-0.0028340812 	0.013217289 	1.0800886
0.00018090452 	-0.0023245642 	0.013933174 	1.0780488
0.00020100503 	-0.0023245642 	0.013933174 	1.0780488
0.00022110553 	-0.0023245642 	0.013933174 	1.0780488
0.00024120603 	-0.00173479 	0.01486813 	1.0754889
0.00026130653 	-0.00173479 	0.01486813 	1.0754889
0.00028140704 	-0.0012174972 	0.015906846 	1.0724867
0.00030150754 	-0.0012174972 	0.015906846 	1.0724867
0.00032160804 	-0.0012174972 	0.015906846 	1.0724867
0.00034170854 	-0.00079184099 	0.016996906 	1.0690538
0.00036180905 	-0.00079184099 	0.016996906 	1.0690538
0.00038190955 	-0.00079184099 	0.016996906 	1.0690538
0.00040201005 	-0.00043245572 	0.018119162 	1.0651266
0.00042211055 	-0.00043245572 	0.018119162 	1.0651266
0.00044221106 	-0.00043245572 	0.018119162 	1.0651266
0.00046231156 	-0.00011394524 	0.019278847 	1.0605819
0.00048241206 	-0.00011394524 	0.019278847 	1.0605819
0.00050251256 	0.00015680024 	0.020496703 	1.0552946
0.00052261307 	0.00015680024 	0.020496703 	1.0552946
0.00054271357 	0.00015680024 	0.020496703 	1.0552946
0.00056281407 	0.00033687481 	0.02184531 	1.0492099
0.00058291457 	0.00033687481 	0.02184531 	1.0492099
0.00060301508 	0.00033687481 	0.02184531 	1.0492099
0.00062311558 	0.00037349363 	0.023455549 	1.0424208
0.00064321608 	0.00037349363 	0.023455549 	1.0424208
0.00066331658 	0.00037349363 	0.023455549 	1.0424208
0.00068341709 	0.00022872584 	0.025501184 	1.0351607
0.00070351759 	0.00022872584 	0.025501184 	1.0351607
0.00072361809 	-0.00010585424 	0.028126395 	1.027678
0.00074371859 	-0.00010585424 	0.028126395 	1.027678
0.0007638191 	-0.00010585424 	0.028126395 	1.027678
0.0007839196 	-0.00063969329 	0.031345852 	1.0199906
0.0008040201 	-0.00063969329 	0.031345852 	1.0199906
0.0008241206 	-0.00063969329 	0.031345852 	1.0199906
0.00084422111 	-0.0014432481 	0.035016483 	1.0115991
0.00086432161 	-0.0014432481 	0.035016483 	1.0115991
0.00088442211 	-0.0014432481 	0.035016483 	1.0115991
0.00090452261 	-0.0026569406 	0.038934821 	1.0013411
0.00092462312 	-0.0026569406 	0.038934821 	1.0013411
0.00094472362 	-0.0045286138 	0.042946632 	0.98769205
0.00096482412 	-0.0045286138 	0.042946632 	0.98769205
0.00098492462 	-0.0045286138 	0.042946632 	0.98769205
0.0010050251 	-0.021691561 	0.044024945 	0.9498926
0.0010251256 	-0.021691561 	0.044024945 	0.9498926
0.0010452261 	-0.021691561 	0.044024945 	0.9498926
0.0010653266 	-0.027108728 	0.048564512 	0.9204613
0.0010854271 	-0.027108728 	0.048564512 	0.9204613
0.0011055276 	-0.027108728 	0.048564512 	0.9204613
0.0011256281 	-0.031420933 	0.052925932 	0.8930786
0.0011457286 	-0.031420933 	0.052925932 	0.8930786
0.0011658291 	-0.031420933 	0.052925932 	0.8930786
0.0011859296 	-0.033881325 	0.056301366 	0.87076955
0.0012060302 	-0.033881325 	0.056301366 	0.87076955
0.0012261307 	-0.033881325 	0.056301366 	0.87076955
0.0012462312 	-0.034132059 	0.057988312 	0.85332862
0.0012663317 	-0.034132059 	0.057988312 	0.85332862
0.0012864322 	-0.034132059 	0.057988312 	0.85332862
0.0013065327 	-0.032403386 	0.057907301 	0.83910902
0.0013266332 	-0.032403386 	0.057907301 	0.83910902
0.0013467337 	-0.032403386 	0.057907301 	0.83910902
0.0013668342 	-0.029094072 	0.056621061 	0.82701534
0.0013869347 	-0.029094072 	0.056621061 	0.82701534
0.0014070352 	-0.029094072 	0.056621061 	0.82701534
0.0014271357 	-0.024714365 	0.054938491 	0.81711871
0.0014472362 	-0.024714365 	0.054938491 	0.81711871
0.0014673367 	-0.024714365 	0.054938491 	0.81711871
0.0014874372 	-0.019657673 	0.05335121 	0.81016848
0.0015075377 	-0.019657673 	0.05335121 	0.81016848
0.0015276382 	-0.014179678 	0.051821043 	0.80692367
0.0015477387 	-0.014179678 	0.051821043 	0.80692367
0.0015678392 	-0.014179678 	0.051821043 	0.80692367
0.0015879397 	-0.0084150827 	0.049841911 	0.8077447
0.0016080402 	-0.0084150827 	0.049841911 	0.8077447
0.0016281407 	-0.0084150827 	0.049841911 	0.8077447
0.0016482412 	-0.0024752386 	0.046703882 	0.81221354
0.0016683417 	-0.0024752386 	0.046703882 	0.81221354
0.0016884422 	0.0033427408 	0.041683061 	0.81906856
0.0017085427 	0.0033427408 	0.041683061 	0.81906856
0.0017286432 	0.0033427408 	0.041683061 	0.81906856
0.0017487437 	0.0087531632 	0.03439349 	0.82686128
0.0017688442 	0.0087531632 	0.03439349 	0.82686128
0.0017889447 	0.0087531632 	0.03439349 	0.82686128
0.0018090452 	0.013445919 	0.024924068 	0.83429774
0.0018291457 	0.013445919 	0.024924068 	0.83429774
0.0018492462 	0.017132617 	0.01391352 	0.84044731
0.0018693467 	0.017132617 	0.01391352 	0.84044731
0.0018894472 	0.017132617 	0.01391352 	0.84044731
0.0019095477 	0.019786723 	0.0022205721 	0.84481765
0.0019296482 	0.019786723 	0.0022205721 	0.84481765
0.0019497487 	0.021076806 	-0.0095881042 	0.8474046
0.0019698492 	0.021076806 	-0.0095881042 	0.8474046
0.0019899497 	0.021076806 	-0.0095881042 	0.8474046
0.0020100503 	0.020158156 	-0.021386652 	0.84900719
0.0020301508 	0.020158156 	-0.021386652 	0.84900719
0.0020502513 	0.015791135 	-0.033768651 	0.85135189
0.0020703518 	0.015791135 	-0.033768651 	0.85135189
0.0020904523 	0.0070800951 	-0.047970002 	0.85646497
0.0021105528 	0.0070800951 	-0.047970002 	0.85646497
0.0021306533 	0.0070800951 	-0.047970002 	0.85646497
0.0021507538 	-0.0057183527 	-0.06450671 	0.86463694
0.0021708543 	-0.0057183527 	-0.06450671 	0.86463694
0.0021909548 	-0.02032868 	-0.081603355 	0.87280167
0.0022110553 	-0.02032868 	-0.081603355 	0.87280167
0.0022311558 	-0.032891175 	-0.095830481 	0.87623461
0.0022512563 	-0.032891175 	-0.095830481 	0.87623461
0.0022713568 	-0.040472469 	-0.10464461 	0.87216532
0.0022914573 	-0.040472469 	-0.10464461 	0.87216532
0.0023115578 	-0.040472469 	-0.10464461 	0.87216532
0.0023316583 	-0.04249026 	-0.10807497 	0.86178714
0.0023517588 	-0.04249026 	-0.10807497 	0.86178714
0.0023718593 	-0.040100785 	-0.10807324 	0.84854576
0.0023919598 	-0.040100785 	-0.10807324 	0.84854576
0.0024120603 	-0.034861945 	-0.10678664 	0.8352609
0.0024321608 	-0.034861945 	-0.10678664 	0.8352609
0.0024522613 	-0.02794512 	-0.10549407 	0.82312052
0.0024723618 	-0.02794512 	-0.10549407 	0.82312052
0.0024924623 	-0.020087053 	-0.1045548 	0.81220324
0.0025125628 	-0.020087053 	-0.1045548 	0.81220324
0.0025326633 	-0.011763763 	-0.10373771 	0.80214243
0.0025527638 	-0.011763763 	-0.10373771 	0.80214243
0.0025728643 	-0.0033265834 	-0.10254606 	0.79248479
0.0025929648 	-0.0033265834 	-0.10254606 	0.79248479
0.0026130653 	0.0049300812 	-0.10043263 	0.78284989
0.0026331658 	0.0049300812 	-0.10043263 	0.78284989
0.0026532663 	0.012763957 	-0.096922471 	0.77299844
0.0026733668 	0.012763957 	-0.096922471 	0.77299844
0.0026934673 	0.019973437 	-0.091665236 	0.76286302
0.0027135678 	0.019973437 	-0.091665236 	0.76286302
0.0027336683 	0.026389991 	-0.084463319 	0.75253495
0.0027537688 	0.026389991 	-0.084463319 	0.75253495
0.0027738693 	0.031878916 	-0.075291003 	0.74222097
0.0027939698 	0.031878916 	-0.075291003 	0.74222097
0.0028140704 	0.036341054 	-0.064308858 	0.73218241
0.0028341709 	0.036341054 	-0.064308858 	0.73218241
0.0028542714 	0.039707891 	-0.051873039 	0.72273694
0.0028743719 	0.041945771 	-0.038514518 	0.71432639
0.0028944724 	0.041945771 	-0.038514518 	0.71432639
0.0029145729 	0.04308186 	-0.024902076 	0.70753969
0.0029346734 	0.04308186 	-0.024902076 	0.70753969
0.0029547739 	0.04321855 	-0.011798347 	0.70292072
0.0029748744 	0.04321855 	-0.011798347 	0.70292072
0.0029949749 	0.042636231 	0.00013324872 	0.70061225
0.0030150754 	0.041513036 	0.010507257 	0.70015953
0.0030351759 	0.041513036 	0.010507257 	0.70015953
0.0030552764 	0.039944128 	0.019430812 	0.7007098
0.0030753769 	0.039944128 	0.019430812 	0.7007098
0.0030954774 	0.038191954 	0.027477916 	0.70150849
0.0031155779 	0.036449746 	0.035408585 	0.70221086
0.0031356784 	0.036449746 	0.035408585 	0.70221086
0.0031557789 	0.034841374 	0.043815672 	0.70281484
0.0031758794 	0.034841374 	0.043815672 	0.70281484
0.0031959799 	0.033467834 	0.052893641 	0.70333305
0.0032160804 	0.032370438 	0.062410866 	0.70354162
0.0032361809 	0.032370438 	0.062410866 	0.70354162
0.0032562814 	0.031492828 	0.071839376 	0.70300914
0.0032763819 	0.030683139 	0.080523264 	0.70135547
0.0032964824 	0.030683139 	0.080523264 	0.70135547
0.0033165829 	0.029735297 	0.087776729 	0.69851237
0.0033366834 	0.02845748 	0.092891835 	0.69471991
0.0033567839 	0.02845748 	0.092891835 	0.69471991
0.0033768844 	0.026742613 	0.095141263 	0.69017185
0.0033969849 	0.024601726 	0.09387108 	0.68455888
0.0034170854 	0.024601726 	0.09387108 	0.68455888
0.0034371859 	0.022128513 	0.088684713 	0.67697192
0.0034572864 	0.019401152 	0.079606266 	0.66642291
0.0034773869 	0.016403051 	0.067111392 	0.65265146
0.0034974874 	0.016403051 	0.067111392 	0.65265146
0.0035175879 	0.013061878 	0.052030002 	0.63641796
0.0035376884 	0.0094136582 	0.035442657 	0.61882182
0.0035577889 	0.0057282981 	0.01864284 	0.60024848
0.0035778894 	0.0057282981 	0.01864284 	0.60024848
0.0035979899 	0.0024619263 	0.0030498046 	0.58002072
0.0036180905 	7.277134e-05 	-0.010046294 	0.55706205
0.003638191 	-0.0012227489 	-0.019854009 	0.53075961
0.0036582915 	-0.0012227489 	-0.019854009 	0.53075961
0.003678392 	-0.0015204558 	-0.026263342 	0.50137276
0.0036984925 	-0.0011006421 	-0.0297433 	0.46989562
0.003718593 	-0.0003058904 	-0.031064322 	0.43759197
0.0037386935 	0.00053726009 	-0.031019097 	0.40553053
0.003758794 	0.0012035086 	-0.03024298 	0.37426833
0.0037788945 	0.0012035086 	-0.03024298 	0.37426833
0.003798995 	0.0015953643 	-0.029144141 	0.34375522
0.0038190955 	0.0017093036 	-0.027910467 	0.31345123
0.003839196 	0.0016008161 	-0.026557411 	0.2825637
0.0038592965 	0.0013470751 	-0.024991029 	0.25031129
0.003879397 	0.0010223466 	-0.023068039 	0.21613233
0.0038994975 	0.00068694513 	-0.020639631 	0.17980087
0.003919598 	0.00038665375 	-0.017571184 	0.14145325
0.0039396985 	0.00015610402 	-0.013740254 	0.1015503
0.003959799 	1.7458102e-05 	-0.0090287575 	0.060802233
0.0039798995 	-1.1338634e-05 	-0.0033407405 	0.020063581
0.004 	-1.1338634e-05 	-0.0033407405 	0.020063581
