0 	-0.048570666 	0.075431184 	1.0395911
5.5555556e-05 	0.079705495 	0.012278115 	1.0545525
0.00011111111 	0.07530808 	0.0064875188 	1.0597384
0.00016666667 	0.070287825 	0.0068445009 	1.0633206
0.00022222222 	0.065240749 	0.0082020609 	1.0656422
0.00027777778 	0.060126319 	0.008822946 	1.0671476
0.00033333333 	0.054828609 	0.0083509817 	1.0682628
0.00038888889 	0.049235649 	0.0069196045 	1.0692194
0.00044444444 	0.043288486 	0.0045525052 	1.0698874
0.0005 	0.037035908 	0.0010751884 	1.0697746
0.00055555556 	0.030691622 	-0.0034174324 	1.0682052
0.00061111111 	0.024632054 	-0.0080818365 	1.0645512
0.00066666667 	0.019292377 	-0.011557746 	1.0584683
0.00072222222 	0.015006831 	-0.012860823 	1.0501347
0.00077777778 	0.011902009 	-0.012045034 	1.0403256
0.00083333333 	0.0099013655 	-0.010008172 	1.0301528
0.00088888889 	0.0088165075 	-0.0077967356 	1.0206335
0.00094444444 	0.0083920677 	-0.0060834507 	1.0124053
0.001 	0.0084041195 	-0.0050214424 	1.0052319
0.0010617224 	0.0087602661 	-0.0046534021 	0.99938254
0.0011225923 	0.0092972995 	-0.0047226117 	0.99475131
0.0011826215 	0.0099902335 	-0.0049887824 	0.99082984
0.0012418217 	0.010810874 	-0.0053463506 	0.98727514
0.0013002041 	0.011732433 	-0.0058130023 	0.98391866
0.0013577803 	0.012713769 	-0.0065337314 	0.98064495
0.0014145612 	0.013704546 	-0.0077603905 	0.97727309
0.0014705579 	0.014628699 	-0.0097901643 	0.97358693
0.0015257812 	0.015375718 	-0.012851036 	0.96948476
0.0015802418 	0.015825883 	-0.016973494 	0.96506139
0.0016339502 	0.015910752 	-0.02193235 	0.96051733
0.0016869168 	0.015646714 	-0.027301582 	0.9559786
0.0017391518 	0.015098589 	-0.032615003 	0.95139675
0.0017906654 	0.014332186 	-0.037495937 	0.94653994
0.0018414676 	0.01344288 	-0.041657254 	0.94105429
0.0018915681 	0.012558696 	-0.044928256 	0.93464996
0.0019409766 	0.011793526 	-0.047304422 	0.92730735
0.0019897027 	0.011240806 	-0.048888991 	0.91934401
0.0020377558 	0.010962605 	-0.049794637 	0.91129312
0.0020851453 	0.011000769 	-0.050143821 	0.90369001
0.0021318802 	0.011432359 	-0.049987985 	0.89689439
0.0021779697 	0.012335656 	-0.049311781 	0.89106139
0.0022234225 	0.013760464 	-0.04805622 	0.88617435
0.0022682477 	0.015734678 	-0.046139854 	0.88213789
0.0023124537 	0.018246277 	-0.043474297 	0.8788439
0.0023560491 	0.021239238 	-0.040013965 	0.87618902
0.0023990425 	0.024639101 	-0.035751897 	0.8740926
0.002441442 	0.028337334 	-0.030738354 	0.87247693
0.002483256 	0.032191894 	-0.025083848 	0.87125991
0.0025244924 	0.036041283 	-0.018948157 	0.87035167
0.0025651593 	0.039723786 	-0.012543235 	0.86965557
0.0026052645 	0.043090633 	-0.0061162398 	0.86907009
0.0026448158 	0.046002389 	6.6672634e-05 	0.86849704
0.0026838209 	0.048340997 	0.0057440615 	0.86784202
0.0027222872 	0.049988549 	0.010690161 	0.86703369
0.0027602223 	0.050851795 	0.014774041 	0.86604332
0.0027976334 	0.05086682 	0.017999805 	0.86490677
0.0028345278 	0.049938162 	0.020581489 	0.86370271
0.0028709126 	0.047968201 	0.02297044 	0.86252401
0.002906795 	0.044895528 	0.025777976 	0.86142951
0.0029421817 	0.040752111 	0.02954948 	0.86040162
0.0029770797 	0.03570504 	0.034445358 	0.85933039
0.0030114957 	0.030075766 	0.040011552 	0.85803958
0.0030454363 	0.024308971 	0.045229729 	0.85635498
0.0030789082 	0.018886017 	0.048881369 	0.85417004
0.0031119178 	0.014225927 	0.049973999 	0.85146453
0.0031444715 	0.010621332 	0.048022753 	0.84824673
0.0031765755 	0.0082061887 	0.043072633 	0.84446096
0.0032082362 	0.0070293731 	0.035557304 	0.83991845
0.0032394596 	0.0070841133 	0.026108288 	0.83427171
0.0032702517 	0.0083141133 	0.015420174 	0.82712279
0.0033006186 	0.010681005 	0.0041904847 	0.81821711
0.003330566 	0.014052227 	-0.0068968509 	0.80762039
0.0033600998 	0.018037963 	-0.017132004 	0.79587324
0.0033892257 	0.02207456 	-0.025806917 	0.78393349
0.0034179494 	0.025564622 	-0.032291949 	0.77295127
0.0034462763 	0.027977308 	-0.036145481 	0.76395612
0.003474212 	0.028936175 	-0.037210158 	0.75764523
0.0035017619 	0.028286261 	-0.035652612 	0.75435774
0.0035289312 	0.026115186 	-0.031939691 	0.75413953
0.0035557253 	0.022733206 	-0.026811074 	0.75671206
0.0035821494 	0.018606311 	-0.021246068 	0.76125952
0.0036082084 	0.014241024 	-0.01639257 	0.76617504
0.0036339076 	0.010064979 	-0.013429556 	0.76893322
0.0036592518 	0.006386913 	-0.013227255 	0.76603445
0.003684246 	0.0035238968 	-0.015882858 	0.75299881
0.003708895 	0.0018925701 	-0.020560401 	0.72498711
0.0037332035 	0.0018542374 	-0.026014115 	0.67893829
0.0037571763 	0.0033422654 	-0.031317989 	0.6165141
0.003780818 	0.0056345565 	-0.035861232 	0.54502076
0.0038041332 	0.0076630736 	-0.038699226 	0.47441986
0.0038271264 	0.0085897466 	-0.038380699 	0.41243662
0.0038498019 	0.0081520506 	-0.033731602 	0.36143432
0.0038721643 	0.0066222382 	-0.024847376 	0.31845319
0.0038942179 	0.0045610697 	-0.013491143 	0.27738323
0.0039159668 	0.0025618967 	-0.0026366735 	0.23175259
0.0039374154 	0.0010606224 	0.0045796477 	0.17709061
0.0039585677 	0.00022955037 	0.0061534338 	0.11220919
0.0039794279 	-4.0981606e-06 	0.0025033704 	0.039051383
0.004 	-4.0981606e-06 	0.0025033704 	0.039051383
