0 	0.054108529 	0.046621157 	0.92915971
2.0100503e-05 	-0.040784481 	0.055488766 	0.92481796
4.0201005e-05 	-0.040784481 	0.055488766 	0.92481796
6.0301508e-05 	-0.0565524 	0.03556853 	0.92149151
8.040201e-05 	-0.0565524 	0.03556853 	0.92149151
0.00010050251 	-0.0565524 	0.03556853 	0.92149151
0.00012060302 	-0.056270393 	0.03334795 	0.91951786
0.00014070352 	-0.056270393 	0.03334795 	0.91951786
0.00016080402 	-0.056270393 	0.03334795 	0.91951786
0.00018090452 	-0.053939067 	0.03564635 	0.91923747
0.00020100503 	-0.053939067 	0.03564635 	0.91923747
0.00022110553 	-0.053939067 	0.03564635 	0.91923747
0.00024120603 	-0.050813242 	0.039289357 	0.92092903
0.00026130653 	-0.050813242 	0.039289357 	0.92092903
0.00028140704 	-0.046981405 	0.04263705 	0.92468875
0.00030150754 	-0.046981405 	0.04263705 	0.92468875
0.00032160804 	-0.046981405 	0.04263705 	0.92468875
0.00034170854 	-0.042389428 	0.044163302 	0.93027779
0.00036180905 	-0.042389428 	0.044163302 	0.93027779
0.00038190955 	-0.042389428 	0.044163302 	0.93027779
0.00040201005 	-0.037152793 	0.042352118 	0.93701666
0.00042211055 	-0.037152793 	0.042352118 	0.93701666
0.00044221106 	-0.037152793 	0.042352118 	0.93701666
0.00046231156 	-0.031721586 	0.036145575 	0.94388554
0.00048241206 	-0.031721586 	0.036145575 	0.94388554
0.00050251256 	-0.026874569 	0.025561539 	0.94994801
0.00052261307 	-0.026874569 	0.025561539 	0.94994801
0.00054271357 	-0.026874569 	0.025561539 	0.94994801
0.00056281407 	-0.023428778 	0.011847033 	0.95493496
0.00058291457 	-0.023428778 	0.011847033 	0.95493496
0.00060301508 	-0.023428778 	0.011847033 	0.95493496
0.00062311558 	-0.021763416 	-0.0032610265 	0.95947546
0.00064321608 	-0.021763416 	-0.0032610265 	0.95947546
0.00066331658 	-0.021763416 	-0.0032610265 	0.95947546
0.00068341709 	-0.021645667 	-0.018411777 	0.96474509
0.00070351759 	-0.021645667 	-0.018411777 	0.96474509
0.00072361809 	-0.022528796 	-0.032605199 	0.97195265
0.00074371859 	-0.022528796 	-0.032605199 	0.97195265
0.0007638191 	-0.022528796 	-0.032605199 	0.97195265
0.0007839196 	-0.023878753 	-0.044482219 	0.98187469
0.0008040201 	-0.023878753 	-0.044482219 	0.98187469
0.0008241206 	-0.023878753 	-0.044482219 	0.98187469
0.00084422111 	-0.025392721 	-0.052460846 	0.99457099
0.00086432161 	-0.025392721 	-0.052460846 	0.99457099
0.00088442211 	-0.025392721 	-0.052460846 	0.99457099
0.00090452261 	-0.026990121 	-0.055797707 	1.0094786
0.00092462312 	-0.026990121 	-0.055797707 	1.0094786
0.00094472362 	-0.02877764 	-0.055328204 	1.0256292
0.00096482412 	-0.02877764 	-0.055328204 	1.0256292
0.00098492462 	-0.02877764 	-0.055328204 	1.0256292
0.0010050251 	-0.030621403 	-0.056976808 	1.0409367
0.0010251256 	-0.030621403 	-0.056976808 	1.0409367
0.0010452261 	-0.030621403 	-0.056976808 	1.0409367
0.0010653266 	-0.033446994 	-0.048052502 	1.0586629
0.0010854271 	-0.033218807 	-0.052142205 	1.0560491
0.0011055276 	-0.033218807 	-0.052142205 	1.0560491
0.0011256281 	-0.036493762 	-0.046747041 	1.0682007
0.0011457286 	-0.036493762 	-0.046747041 	1.0682007
0.0011658291 	-0.036493762 	-0.046747041 	1.0682007
0.0011859296 	-0.04022925 	-0.042710812 	1.0781531
0.0012060302 	-0.04022925 	-0.042710812 	1.0781531
0.0012261307 	-0.04022925 	-0.042710812 	1.0781531
0.0012462312 	-0.043557374 	-0.041633399 	1.0858033
0.0012663317 	-0.043557374 	-0.041633399 	1.0858033
0.0012864322 	-0.043557374 	-0.041633399 	1.0858033
0.0013065327 	-0.045151312 	-0.043621859 	1.0891472
0.0013266332 	-0.045151312 	-0.043621859 	1.0891472
0.0013467337 	-0.045151312 	-0.043621859 	1.0891472
0.0013668342 	-0.044669387 	-0.047353399 	1.0860975
0.0013869347 	-0.044669387 	-0.047353399 	1.0860975
0.0014070352 	-0.044669387 	-0.047353399 	1.0860975
0.0014271357 	-0.043948053 	-0.050812832 	1.0768985
0.0014472362 	-0.043948053 	-0.050812832 	1.0768985
0.0014673367 	-0.043948053 	-0.050812832 	1.0768985
0.0014874372 	-0.046127545 	-0.050693748 	1.0627642
0.0015075377 	-0.046127545 	-0.050693748 	1.0627642
0.0015276382 	-0.052913164 	-0.042606441 	1.0409744
0.0015477387 	-0.052913164 	-0.042606441 	1.0409744
0.0015678392 	-0.052913164 	-0.042606441 	1.0409744
0.0015879397 	-0.062557071 	-0.024131631 	1.0031063
0.0016080402 	-0.062557071 	-0.024131631 	1.0031063
0.0016281407 	-0.062557071 	-0.024131631 	1.0031063
0.0016482412 	-0.071640969 	0.00056026253 	0.94642305
0.0016683417 	-0.071640969 	0.00056026253 	0.94642305
0.0016884422 	-0.078924114 	0.022094963 	0.88696449
0.0017085427 	-0.078924114 	0.022094963 	0.88696449
0.0017286432 	-0.078924114 	0.022094963 	0.88696449
0.0017487437 	-0.085140845 	0.033847989 	0.84587321
0.0017688442 	-0.085140845 	0.033847989 	0.84587321
0.0017889447 	-0.085140845 	0.033847989 	0.84587321
0.0018090452 	-0.090926277 	0.037103208 	0.82676784
0.0018291457 	-0.090926277 	0.037103208 	0.82676784
0.0018492462 	-0.096489779 	0.03719139 	0.81972044
0.0018693467 	-0.096489779 	0.03719139 	0.81972044
0.0018894472 	-0.096489779 	0.03719139 	0.81972044
0.0019095477 	-0.10178183 	0.037466518 	0.81683705
0.0019296482 	-0.10178183 	0.037466518 	0.81683705
0.0019497487 	-0.10658213 	0.038633365 	0.81570515
0.0019698492 	-0.10658213 	0.038633365 	0.81570515
0.0019899497 	-0.10658213 	0.038633365 	0.81570515
0.0020100503 	-0.11061712 	0.040420645 	0.81546336
0.0020301508 	-0.11061712 	0.040420645 	0.81546336
0.0020502513 	-0.11352936 	0.042303019 	0.81524999
0.0020703518 	-0.11352936 	0.042303019 	0.81524999
0.0020904523 	-0.11498151 	0.043660259 	0.81457838
0.0021105528 	-0.11498151 	0.043660259 	0.81457838
0.0021306533 	-0.11498151 	0.043660259 	0.81457838
0.0021507538 	-0.11482374 	0.044169749 	0.81338878
0.0021708543 	-0.11482374 	0.044169749 	0.81338878
0.0021909548 	-0.11304153 	0.044007829 	0.81179171
0.0022110553 	-0.11304153 	0.044007829 	0.81179171
0.0022311558 	-0.10969007 	0.04363903 	0.80990133
0.0022512563 	-0.10969007 	0.04363903 	0.80990133
0.0022713568 	-0.10487227 	0.043465914 	0.80782807
0.0022914573 	-0.10487227 	0.043465914 	0.80782807
0.0023115578 	-0.10487227 	0.043465914 	0.80782807
0.0023316583 	-0.098736442 	0.043651634 	0.80569649
0.0023517588 	-0.098736442 	0.043651634 	0.80569649
0.0023718593 	-0.091461312 	0.04413892 	0.80367088
0.0023919598 	-0.091461312 	0.04413892 	0.80367088
0.0024120603 	-0.083268346 	0.044749471 	0.8019177
0.0024321608 	-0.083268346 	0.044749471 	0.8019177
0.0024522613 	-0.074413443 	0.04526647 	0.80059303
0.0024723618 	-0.074413443 	0.04526647 	0.80059303
0.0024924623 	-0.065159396 	0.045480147 	0.79984659
0.0025125628 	-0.065159396 	0.045480147 	0.79984659
0.0025326633 	-0.055748908 	0.045214972 	0.79983505
0.0025527638 	-0.055748908 	0.045214972 	0.79983505
0.0025728643 	-0.046390447 	0.044343406 	0.80072442
0.0025929648 	-0.046390447 	0.044343406 	0.80072442
0.0026130653 	-0.037257355 	0.042787947 	0.8026782
0.0026331658 	-0.037257355 	0.042787947 	0.8026782
0.0026532663 	-0.028507868 	0.040508764 	0.80584905
0.0026733668 	-0.028507868 	0.040508764 	0.80584905
0.0026934673 	-0.020288242 	0.037501816 	0.81034376
0.0027135678 	-0.020288242 	0.037501816 	0.81034376
0.0027336683 	-0.012750995 	0.033788575 	0.81620312
0.0027537688 	-0.012750995 	0.033788575 	0.81620312
0.0027738693 	-0.0060603378 	0.02940622 	0.8234005
0.0027939698 	-0.0060603378 	0.02940622 	0.8234005
0.0028140704 	-0.0003480075 	0.024414423 	0.83183529
0.0028341709 	-0.0003480075 	0.024414423 	0.83183529
0.0028542714 	0.0042488624 	0.018884462 	0.84135062
0.0028743719 	0.0075926711 	0.012918705 	0.85174328
0.0028944724 	0.0075926711 	0.012918705 	0.85174328
0.0029145729 	0.0096542827 	0.0066614921 	0.86278814
0.0029346734 	0.0096542827 	0.0066614921 	0.86278814
0.0029547739 	0.010508475 	0.00028949915 	0.87416369
0.0029748744 	0.010508475 	0.00028949915 	0.87416369
0.0029949749 	0.010191391 	-0.0059871417 	0.88531922
0.0030150754 	0.0088415084 	-0.011959171 	0.89555402
0.0030351759 	0.0088415084 	-0.011959171 	0.89555402
0.0030552764 	0.0066575105 	-0.017436714 	0.90404309
0.0030753769 	0.0066575105 	-0.017436714 	0.90404309
0.0030954774 	0.0037664974 	-0.022327926 	0.90977755
0.0031155779 	0.00040586236 	-0.026603548 	0.91168719
0.0031356784 	0.00040586236 	-0.026603548 	0.91168719
0.0031557789 	-0.0031077191 	-0.030209916 	0.90889629
0.0031758794 	-0.0031077191 	-0.030209916 	0.90889629
0.0031959799 	-0.0064034926 	-0.032958285 	0.90105703
0.0032160804 	-0.0091397275 	-0.034568964 	0.88864035
0.0032361809 	-0.0091397275 	-0.034568964 	0.88864035
0.0032562814 	-0.011154847 	-0.034913555 	0.87305077
0.0032763819 	-0.012473036 	-0.034235379 	0.85636457
0.0032964824 	-0.012473036 	-0.034235379 	0.85636457
0.0033165829 	-0.013182899 	-0.033121422 	0.84071123
0.0033366834 	-0.013309873 	-0.032236278 	0.82757842
0.0033567839 	-0.013309873 	-0.032236278 	0.82757842
0.0033768844 	-0.012797144 	-0.03218448 	0.81756839
0.0033969849 	-0.011597697 	-0.033490096 	0.8107604
0.0034170854 	-0.011597697 	-0.033490096 	0.8107604
0.0034371859 	-0.0097752466 	-0.036564777 	0.80714459
0.0034572864 	-0.0075236479 	-0.041620723 	0.80653786
0.0034773869 	-0.0050866505 	-0.048518589 	0.80817026
0.0034974874 	-0.0050866505 	-0.048518589 	0.80817026
0.0035175879 	-0.0027295369 	-0.056754868 	0.81076264
0.0035376884 	-0.00078357764 	-0.065658231 	0.81334219
0.0035577889 	0.00035992289 	-0.074627055 	0.81589854
0.0035778894 	0.00035992289 	-0.074627055 	0.81589854
0.0035979899 	0.00030954402 	-0.083214874 	0.81921333
0.0036180905 	-0.0011934088 	-0.091058813 	0.82413702
0.003638191 	-0.0041992349 	-0.097841636 	0.83064359
0.0036582915 	-0.0041992349 	-0.097841636 	0.83064359
0.003678392 	-0.0084273299 	-0.10343288 	0.83665251
0.0036984925 	-0.013124531 	-0.10809334 	0.83690287
0.003718593 	-0.017127068 	-0.11238689 	0.82313693
0.0037386935 	-0.019231886 	-0.11654095 	0.78691075
0.003758794 	-0.018792889 	-0.11964732 	0.7243623
0.0037788945 	-0.018792889 	-0.11964732 	0.7243623
0.003798995 	-0.016096292 	-0.11976966 	0.63952857
0.0038190955 	-0.012167826 	-0.11534691 	0.54293763
0.003839196 	-0.0081697782 	-0.10651863 	0.44633456
0.0038592965 	-0.0048913452 	-0.094925632 	0.35793353
0.003879397 	-0.002612794 	-0.082428159 	0.28108075
0.0038994975 	-0.0012418391 	-0.070087337 	0.21555823
0.003919598 	-0.00052054411 	-0.05794787 	0.15945667
0.0039396985 	-0.00018158791 	-0.045276111 	0.11038444
0.003959799 	-3.0880826e-05 	-0.030753785 	0.065789411
0.0039798995 	1.5009537e-05 	-0.012442115 	0.022708853
0.004 	1.5009537e-05 	-0.012442115 	0.022708853
