0 	-0.011498644 	-0.0057208468 	0.99877471
2.0100503e-05 	-0.0058157389 	0.014012897 	0.99756442
4.0201005e-05 	-0.0058157389 	0.014012897 	0.99756442
6.0301508e-05 	0.0022741751 	0.017064949 	0.9964579
8.040201e-05 	0.0022741751 	0.017064949 	0.9964579
0.00010050251 	0.0022741751 	0.017064949 	0.9964579
0.00012060302 	0.0058885595 	0.018046649 	0.99539193
0.00014070352 	0.0058885595 	0.018046649 	0.99539193
0.00016080402 	0.0058885595 	0.018046649 	0.99539193
0.00018090452 	0.0084505036 	0.01858438 	0.99434788
0.00020100503 	0.0084505036 	0.01858438 	0.99434788
0.00022110553 	0.0084505036 	0.01858438 	0.99434788
0.00024120603 	0.010493935 	0.018646614 	0.99333872
0.00026130653 	0.010493935 	0.018646614 	0.99333872
0.00028140704 	0.012086158 	0.018134412 	0.99240356
0.00030150754 	0.012086158 	0.018134412 	0.99240356
0.00032160804 	0.012086158 	0.018134412 	0.99240356
0.00034170854 	0.013169068 	0.016984762 	0.99160671
0.00036180905 	0.013169068 	0.016984762 	0.99160671
0.00038190955 	0.013169068 	0.016984762 	0.99160671
0.00040201005 	0.013641722 	0.015201953 	0.99103723
0.00042211055 	0.013641722 	0.015201953 	0.99103723
0.00044221106 	0.013641722 	0.015201953 	0.99103723
0.00046231156 	0.013403382 	0.012856834 	0.99079318
0.00048241206 	0.013403382 	0.012856834 	0.99079318
0.00050251256 	0.012393608 	0.010063439 	0.99093756
0.00052261307 	0.012393608 	0.010063439 	0.99093756
0.00054271357 	0.012393608 	0.010063439 	0.99093756
0.00056281407 	0.010628356 	0.006945208 	0.99144638
0.00058291457 	0.010628356 	0.006945208 	0.99144638
0.00060301508 	0.010628356 	0.006945208 	0.99144638
0.00062311558 	0.0082182696 	0.0035999689 	0.99219436
0.00064321608 	0.0082182696 	0.0035999689 	0.99219436
0.00066331658 	0.0082182696 	0.0035999689 	0.99219436
0.00068341709 	0.005355641 	6.3930978e-05 	0.99301248
0.00070351759 	0.005355641 	6.3930978e-05 	0.99301248
0.00072361809 	0.0022835331 	-0.0037169882 	0.99379887
0.00074371859 	0.0022835331 	-0.0037169882 	0.99379887
0.0007638191 	0.0022835331 	-0.0037169882 	0.99379887
0.0007839196 	-0.00073834349 	-0.0078928969 	0.99462634
0.0008040201 	-0.00073834349 	-0.0078928969 	0.99462634
0.0008241206 	-0.00073834349 	-0.0078928969 	0.99462634
0.00084422111 	-0.0034463603 	-0.012674214 	0.99577009
0.00086432161 	-0.0034463603 	-0.012674214 	0.99577009
0.00088442211 	-0.0034463603 	-0.012674214 	0.99577009
0.00090452261 	-0.0056044444 	-0.01824326 	0.99758654
0.00092462312 	-0.0056044444 	-0.01824326 	0.99758654
0.00094472362 	-0.007024902 	-0.024546526 	1.000254
0.00096482412 	-0.007024902 	-0.024546526 	1.000254
0.00098492462 	-0.007024902 	-0.024546526 	1.000254
0.0010050251 	-0.011160181 	-0.032305334 	1.0082094
0.0010251256 	-0.011160181 	-0.032305334 	1.0082094
0.0010452261 	-0.0076472793 	-0.031650226 	1.0036203
0.0010653266 	-0.0074679852 	-0.038594785 	1.0066144
0.0010854271 	-0.0074679852 	-0.038594785 	1.0066144
0.0011055276 	-0.0074679852 	-0.038594785 	1.0066144
0.0011256281 	-0.0069226522 	-0.043872628 	1.0074016
0.0011457286 	-0.0069226522 	-0.043872628 	1.0074016
0.0011658291 	-0.012508939 	-0.043206942 	1.0104383
0.0011859296 	-0.013353091 	-0.044543073 	1.0051613
0.0012060302 	-0.006556555 	-0.046672229 	1.0045757
0.0012261307 	-0.006556555 	-0.046672229 	1.0045757
0.0012462312 	-0.0067910418 	-0.046626122 	0.99747716
0.0012663317 	-0.0067910418 	-0.046626122 	0.99747716
0.0012864322 	-0.0067910418 	-0.046626122 	0.99747716
0.0013065327 	-0.0078909155 	-0.043688 	0.98614491
0.0013266332 	-0.0078909155 	-0.043688 	0.98614491
0.0013467337 	-0.0078909155 	-0.043688 	0.98614491
0.0013668342 	-0.0098490909 	-0.03817387 	0.97083654
0.0013869347 	-0.0098490909 	-0.03817387 	0.97083654
0.0014070352 	-0.0098490909 	-0.03817387 	0.97083654
0.0014271357 	-0.012308109 	-0.031097837 	0.95162854
0.0014472362 	-0.012308109 	-0.031097837 	0.95162854
0.0014673367 	-0.012308109 	-0.031097837 	0.95162854
0.0014874372 	-0.014736458 	-0.024191255 	0.92919621
0.0015075377 	-0.014736458 	-0.024191255 	0.92919621
0.0015276382 	-0.028725593 	-0.0096985838 	0.886477
0.0015477387 	-0.016957441 	-0.01899774 	0.90667883
0.0015678392 	-0.016957441 	-0.01899774 	0.90667883
0.0015879397 	-0.019432246 	-0.015934949 	0.88909738
0.0016080402 	-0.019432246 	-0.015934949 	0.88909738
0.0016281407 	-0.032096277 	-0.0072677806 	0.86974755
0.0016482412 	-0.022802801 	-0.014461353 	0.87920543
0.0016683417 	-0.022802801 	-0.014461353 	0.87920543
0.0016884422 	-0.027234388 	-0.013765394 	0.87573141
0.0017085427 	-0.027234388 	-0.013765394 	0.87573141
0.0017286432 	-0.027234388 	-0.013765394 	0.87573141
0.0017487437 	-0.032359215 	-0.013055327 	0.87580692
0.0017688442 	-0.032359215 	-0.013055327 	0.87580692
0.0017889447 	-0.032359215 	-0.013055327 	0.87580692
0.0018090452 	-0.037629228 	-0.011673376 	0.87745686
0.0018291457 	-0.037629228 	-0.011673376 	0.87745686
0.0018492462 	-0.042597422 	-0.009257773 	0.87993899
0.0018693467 	-0.042597422 	-0.009257773 	0.87993899
0.0018894472 	-0.042597422 	-0.009257773 	0.87993899
0.0019095477 	-0.046971135 	-0.0057992608 	0.88300075
0.0019296482 	-0.046971135 	-0.0057992608 	0.88300075
0.0019497487 	-0.050572197 	-0.0015237383 	0.88635005
0.0019698492 	-0.050572197 	-0.0015237383 	0.88635005
0.0019899497 	-0.053277043 	0.0032299432 	0.88957676
0.0020100503 	-0.053277043 	0.0032299432 	0.88957676
0.0020301508 	-0.053277043 	0.0032299432 	0.88957676
0.0020502513 	-0.0550057 	0.0081023024 	0.89221859
0.0020703518 	-0.0550057 	0.0081023024 	0.89221859
0.0020904523 	-0.055724658 	0.012742259 	0.89382921
0.0021105528 	-0.055724658 	0.012742259 	0.89382921
0.0021306533 	-0.055724658 	0.012742259 	0.89382921
0.0021507538 	-0.055461179 	0.016860282 	0.89404631
0.0021708543 	-0.055461179 	0.016860282 	0.89404631
0.0021909548 	-0.054321576 	0.020247476 	0.89264426
0.0022110553 	-0.054321576 	0.020247476 	0.89264426
0.0022311558 	-0.052493415 	0.022794631 	0.88956829
0.0022512563 	-0.052493415 	0.022794631 	0.88956829
0.0022713568 	-0.050235945 	0.024501099 	0.88494849
0.0022914573 	-0.050235945 	0.024501099 	0.88494849
0.0023115578 	-0.050235945 	0.024501099 	0.88494849
0.0023316583 	-0.047852746 	0.025480103 	0.87909362
0.0023517588 	-0.047852746 	0.025480103 	0.87909362
0.0023718593 	-0.045642043 	0.025950983 	0.8724582
0.0023919598 	-0.045642043 	0.025950983 	0.8724582
0.0024120603 	-0.043834843 	0.026213834 	0.86559001
0.0024321608 	-0.043834843 	0.026213834 	0.86559001
0.0024522613 	-0.042550668 	0.026604982 	0.85903894
0.0024723618 	-0.042550668 	0.026604982 	0.85903894
0.0024924623 	-0.041764183 	0.027434532 	0.85327332
0.0025125628 	-0.041764183 	0.027434532 	0.85327332
0.0025326633 	-0.041311252 	0.028925031 	0.84860623
0.0025527638 	-0.041311252 	0.028925031 	0.84860623
0.0025728643 	-0.040940026 	0.031159287 	0.84516064
0.0025929648 	-0.040940026 	0.031159287 	0.84516064
0.0026130653 	-0.040386903 	0.034050168 	0.84286458
0.0026331658 	-0.040386903 	0.034050168 	0.84286458
0.0026532663 	-0.039442751 	0.037352143 	0.84148653
0.0026733668 	-0.039442751 	0.037352143 	0.84148653
0.0026934673 	-0.037994298 	0.040720681 	0.84070147
0.0027135678 	-0.037994298 	0.040720681 	0.84070147
0.0027336683 	-0.03602136 	0.043798757 	0.84017947
0.0027537688 	-0.03602136 	0.043798757 	0.84017947
0.0027738693 	-0.03356654 	0.04628878 	0.83965043
0.0027939698 	-0.03356654 	0.04628878 	0.83965043
0.0028140704 	-0.030703551 	0.047984683 	0.83892814
0.0028341709 	-0.030703551 	0.047984683 	0.83892814
0.0028542714 	-0.027512691 	0.0487703 	0.83789258
0.0028743719 	-0.024066636 	0.048599795 	0.83645579
0.0028944724 	-0.024066636 	0.048599795 	0.83645579
0.0029145729 	-0.020427311 	0.04747822 	0.83452928
0.0029346734 	-0.020427311 	0.04747822 	0.83452928
0.0029547739 	-0.016646856 	0.045447678 	0.8320076
0.0029748744 	-0.016646856 	0.045447678 	0.8320076
0.0029949749 	-0.012767769 	0.042581468 	0.82876842
0.0030150754 	-0.0088299517 	0.038976612 	0.82467787
0.0030351759 	-0.0088299517 	0.038976612 	0.82467787
0.0030552764 	-0.0048793714 	0.034760497 	0.81962217
0.0030753769 	-0.0048793714 	0.034760497 	0.81962217
0.0030954774 	-0.00096800688 	0.030087269 	0.81353179
0.0031155779 	0.0028514658 	0.025126576 	0.80640295
0.0031356784 	0.0028514658 	0.025126576 	0.80640295
0.0031557789 	0.0065093672 	0.020086715 	0.79833233
0.0031758794 	0.0065093672 	0.020086715 	0.79833233
0.0031959799 	0.0099270561 	0.015166498 	0.78951101
0.0032160804 	0.013035906 	0.010555224 	0.78022065
0.0032361809 	0.013035906 	0.010555224 	0.78022065
0.0032562814 	0.015778125 	0.0064188427 	0.7708225
0.0032763819 	0.018100423 	0.0028838676 	0.76170924
0.0032964824 	0.018100423 	0.0028838676 	0.76170924
0.0033165829 	0.019968347 	3.6831597e-05 	0.75330583
0.0033366834 	0.02136746 	-0.0020765949 	0.7460222
0.0033567839 	0.02136746 	-0.0020765949 	0.7460222
0.0033768844 	0.022292881 	-0.0034507232 	0.74022736
0.0033969849 	0.02276208 	-0.0041212347 	0.73620801
0.0034170854 	0.02276208 	-0.0041212347 	0.73620801
0.0034371859 	0.022802345 	-0.0041511432 	0.73413112
0.0034572864 	0.022450142 	-0.0036186282 	0.73401616
0.0034773869 	0.021762947 	-0.0025995051 	0.73570385
0.0034974874 	0.021762947 	-0.0025995051 	0.73570385
0.0035175879 	0.02081828 	-0.0011526249 	0.73882083
0.0035376884 	0.019710477 	0.00069254746 	0.7427901
0.0035577889 	0.018542849 	0.0029345017 	0.74678459
0.0035778894 	0.018542849 	0.0029345017 	0.74678459
0.0035979899 	0.017413274 	0.0055797191 	0.74974798
0.0036180905 	0.016409847 	0.0086080454 	0.75046748
0.003638191 	0.015597153 	0.011938178 	0.74770219
0.0036582915 	0.015597153 	0.011938178 	0.74770219
0.003678392 	0.01500144 	0.015407807 	0.74038656
0.0036984925 	0.014598528 	0.018776011 	0.72783995
0.003718593 	0.014308744 	0.021744014 	0.70989914
0.0037386935 	0.014006878 	0.023988128 	0.68685619
0.003758794 	0.013545801 	0.025193395 	0.6591676
0.0037788945 	0.013545801 	0.025193395 	0.6591676
0.003798995 	0.012788309 	0.025079731 	0.62702457
0.0038190955 	0.011641663 	0.023435528 	0.58997324
0.003839196 	0.010089858 	0.020180277 	0.54679413
0.0038592965 	0.0082148925 	0.015472685 	0.49579761
0.003879397 	0.0061917387 	0.0098359915 	0.43555736
0.0038994975 	0.0042457442 	0.0041906816 	0.36585207
0.003919598 	0.0025709064 	-0.00034086968 	0.2882773
0.0039396985 	0.0012847701 	-0.0028330633 	0.20598485
0.003959799 	0.0004360782 	-0.0029514735 	0.12249492
0.0039798995 	3.6362026e-05 	-0.0011631581 	0.040306545
0.004 	3.6362026e-05 	-0.0011631581 	0.040306545
