0 	0.0063489138 	-0.033036479 	1.0492486
2.0100503e-05 	0.033717089 	0.0021939155 	1.0500401
4.0201005e-05 	0.033717089 	0.0021939155 	1.0500401
6.0301508e-05 	0.031185519 	0.013841852 	1.0514495
8.040201e-05 	0.031185519 	0.013841852 	1.0514495
0.00010050251 	0.031185519 	0.013841852 	1.0514495
0.00012060302 	0.031085076 	0.015001823 	1.0532981
0.00014070352 	0.031085076 	0.015001823 	1.0532981
0.00016080402 	0.031085076 	0.015001823 	1.0532981
0.00018090452 	0.031611548 	0.014640233 	1.0553977
0.00020100503 	0.031611548 	0.014640233 	1.0553977
0.00022110553 	0.031611548 	0.014640233 	1.0553977
0.00024120603 	0.031987675 	0.014104632 	1.0575604
0.00026130653 	0.031987675 	0.014104632 	1.0575604
0.00028140704 	0.031963003 	0.01375902 	1.0596159
0.00030150754 	0.031963003 	0.01375902 	1.0596159
0.00032160804 	0.031963003 	0.01375902 	1.0596159
0.00034170854 	0.031483861 	0.013690866 	1.0614385
0.00036180905 	0.031483861 	0.013690866 	1.0614385
0.00038190955 	0.031483861 	0.013690866 	1.0614385
0.00040201005 	0.030600889 	0.013881445 	1.0629694
0.00042211055 	0.030600889 	0.013881445 	1.0629694
0.00044221106 	0.030600889 	0.013881445 	1.0629694
0.00046231156 	0.02942316 	0.014281742 	1.0642224
0.00048241206 	0.02942316 	0.014281742 	1.0642224
0.00050251256 	0.028078608 	0.01486834 	1.065267
0.00052261307 	0.028078608 	0.01486834 	1.065267
0.00054271357 	0.028078608 	0.01486834 	1.065267
0.00056281407 	0.026677722 	0.01566721 	1.066198
0.00058291457 	0.026677722 	0.01566721 	1.066198
0.00060301508 	0.026677722 	0.01566721 	1.066198
0.00062311558 	0.0252826 	0.016747158 	1.06711
0.00064321608 	0.0252826 	0.016747158 	1.06711
0.00066331658 	0.0252826 	0.016747158 	1.06711
0.00068341709 	0.023897141 	0.018180144 	1.0680926
0.00070351759 	0.023897141 	0.018180144 	1.0680926
0.00072361809 	0.022465238 	0.019979346 	1.0692309
0.00074371859 	0.022465238 	0.019979346 	1.0692309
0.0007638191 	0.022465238 	0.019979346 	1.0692309
0.0007839196 	0.020918559 	0.022052407 	1.0705776
0.0008040201 	0.020918559 	0.022052407 	1.0705776
0.0008241206 	0.020918559 	0.022052407 	1.0705776
0.00084422111 	0.019219251 	0.024171188 	1.0720799
0.00086432161 	0.019219251 	0.024171188 	1.0720799
0.00088442211 	0.019219251 	0.024171188 	1.0720799
0.00090452261 	0.017415786 	0.026050162 	1.0735308
0.00092462312 	0.017415786 	0.026050162 	1.0735308
0.00094472362 	0.015711856 	0.027345602 	1.0745303
0.00096482412 	0.015711856 	0.027345602 	1.0745303
0.00098492462 	0.015711856 	0.027345602 	1.0745303
0.0010050251 	0.012881776 	0.024470644 	1.074561
0.0010251256 	0.012881776 	0.024470644 	1.074561
0.0010452261 	0.012881776 	0.024470644 	1.074561
0.0010653266 	0.012152447 	0.024278331 	1.0731962
0.0010854271 	0.012152447 	0.024278331 	1.0731962
0.0011055276 	0.012152447 	0.024278331 	1.0731962
0.0011256281 	0.012480992 	0.02314322 	1.0693612
0.0011457286 	0.012480992 	0.02314322 	1.0693612
0.0011658291 	0.012480992 	0.02314322 	1.0693612
0.0011859296 	0.013964503 	0.021159759 	1.0626942
0.0012060302 	0.013964503 	0.021159759 	1.0626942
0.0012261307 	0.013964503 	0.021159759 	1.0626942
0.0012462312 	0.016499993 	0.018549812 	1.0532203
0.0012663317 	0.016499993 	0.018549812 	1.0532203
0.0012864322 	0.016499993 	0.018549812 	1.0532203
0.0013065327 	0.019798746 	0.015707598 	1.0413877
0.0013266332 	0.019798746 	0.015707598 	1.0413877
0.0013467337 	0.019798746 	0.015707598 	1.0413877
0.0013668342 	0.023435477 	0.013231691 	1.0280374
0.0013869347 	0.023435477 	0.013231691 	1.0280374
0.0014070352 	0.023435477 	0.013231691 	1.0280374
0.0014271357 	0.026893709 	0.011875095 	1.0142808
0.0014472362 	0.026893709 	0.011875095 	1.0142808
0.0014673367 	0.026893709 	0.011875095 	1.0142808
0.0014874372 	0.029671708 	0.012417856 	1.0012543
0.0015075377 	0.029671708 	0.012417856 	1.0012543
0.0015276382 	0.031424353 	0.015516812 	0.98977366
0.0015477387 	0.031424353 	0.015516812 	0.98977366
0.0015678392 	0.031424353 	0.015516812 	0.98977366
0.0015879397 	0.032055558 	0.021600405 	0.98005881
0.0016080402 	0.032055558 	0.021600405 	0.98005881
0.0016281407 	0.032055558 	0.021600405 	0.98005881
0.0016482412 	0.031728051 	0.030798015 	0.97163537
0.0016683417 	0.031728051 	0.030798015 	0.97163537
0.0016884422 	0.030818014 	0.042880774 	0.96346229
0.0017085427 	0.030818014 	0.042880774 	0.96346229
0.0017286432 	0.030818014 	0.042880774 	0.96346229
0.0017487437 	0.029875228 	0.057165982 	0.95421848
0.0017688442 	0.029875228 	0.057165982 	0.95421848
0.0017889447 	0.029875228 	0.057165982 	0.95421848
0.0018090452 	0.029489987 	0.072420601 	0.94288435
0.0018291457 	0.029489987 	0.072420601 	0.94288435
0.0018492462 	0.029993747 	0.086956651 	0.92955347
0.0018693467 	0.029993747 	0.086956651 	0.92955347
0.0018894472 	0.029993747 	0.086956651 	0.92955347
0.0019095477 	0.031259184 	0.099187756 	0.91576435
0.0019296482 	0.031259184 	0.099187756 	0.91576435
0.0019497487 	0.032902843 	0.10836618 	0.90362399
0.0019698492 	0.032902843 	0.10836618 	0.90362399
0.0019899497 	0.032902843 	0.10836618 	0.90362399
0.0020100503 	0.034691973 	0.11478114 	0.89447809
0.0020301508 	0.034691973 	0.11478114 	0.89447809
0.0020502513 	0.036715358 	0.11928499 	0.88835772
0.0020703518 	0.036715358 	0.11928499 	0.88835772
0.0020904523 	0.039244343 	0.12271688 	0.88434952
0.0021105528 	0.039244343 	0.12271688 	0.88434952
0.0021306533 	0.039244343 	0.12271688 	0.88434952
0.0021507538 	0.042509377 	0.12555763 	0.88128993
0.0021708543 	0.042509377 	0.12555763 	0.88128993
0.0021909548 	0.04653849 	0.1278892 	0.87827417
0.0022110553 	0.04653849 	0.1278892 	0.87827417
0.0022311558 	0.051113974 	0.12948828 	0.87485983
0.0022512563 	0.051113974 	0.12948828 	0.87485983
0.0022713568 	0.055835226 	0.12997565 	0.87103297
0.0022914573 	0.055835226 	0.12997565 	0.87103297
0.0023115578 	0.055835226 	0.12997565 	0.87103297
0.0023316583 	0.060225242 	0.12895721 	0.86710404
0.0023517588 	0.060225242 	0.12895721 	0.86710404
0.0023718593 	0.06381513 	0.12613677 	0.86361842
0.0023919598 	0.06381513 	0.12613677 	0.86361842
0.0024120603 	0.06624778 	0.12139175 	0.86125842
0.0024321608 	0.06624778 	0.12139175 	0.86125842
0.0024522613 	0.067313886 	0.11479788 	0.86073666
0.0024723618 	0.067313886 	0.11479788 	0.86073666
0.0024924623 	0.066928912 	0.1066375 	0.8626884
0.0025125628 	0.066928912 	0.1066375 	0.8626884
0.0025326633 	0.065082723 	0.097317569 	0.86755425
0.0025527638 	0.065082723 	0.097317569 	0.86755425
0.0025728643 	0.06181828 	0.087187891 	0.87548407
0.0025929648 	0.06181828 	0.087187891 	0.87548407
0.0026130653 	0.057235194 	0.076378183 	0.88618777
0.0026331658 	0.057235194 	0.076378183 	0.88618777
0.0026532663 	0.051487513 	0.064788154 	0.89879446
0.0026733668 	0.051487513 	0.064788154 	0.89879446
0.0026934673 	0.04482715 	0.052351449 	0.91184552
0.0027135678 	0.04482715 	0.052351449 	0.91184552
0.0027336683 	0.037710298 	0.039431596 	0.92359546
0.0027537688 	0.037710298 	0.039431596 	0.92359546
0.0027738693 	0.03079888 	0.026918313 	0.93221673
0.0027939698 	0.03079888 	0.026918313 	0.93221673
0.0028140704 	0.024950511 	0.015638871 	0.93541604
0.0028341709 	0.024950511 	0.015638871 	0.93541604
0.0028542714 	0.020780087 	0.0056484109 	0.93015494
0.0028743719 	0.018181557 	-0.003961121 	0.91361271
0.0028944724 	0.018181557 	-0.003961121 	0.91361271
0.0029145729 	0.016136896 	-0.01410313 	0.88497822
0.0029346734 	0.016136896 	-0.01410313 	0.88497822
0.0029547739 	0.013266027 	-0.024441489 	0.84593508
0.0029748744 	0.013266027 	-0.024441489 	0.84593508
0.0029949749 	0.0088496815 	-0.032577305 	0.79937158
0.0030150754 	0.0033115334 	-0.034706448 	0.74817713
0.0030351759 	0.0033115334 	-0.034706448 	0.74817713
0.0030552764 	-0.002249343 	-0.028972904 	0.69508438
0.0030753769 	-0.002249343 	-0.028972904 	0.69508438
0.0030954774 	-0.0072868948 	-0.01836884 	0.64336312
0.0031155779 	-0.012255439 	-0.0084632911 	0.597286
0.0031356784 	-0.012255439 	-0.0084632911 	0.597286
0.0031557789 	-0.017767584 	-0.0021263255 	0.56065807
0.0031758794 	-0.017767584 	-0.0021263255 	0.56065807
0.0031959799 	-0.023681084 	0.0018374028 	0.53450762
0.0032160804 	-0.029310348 	0.0055194729 	0.51695887
0.0032361809 	-0.029310348 	0.0055194729 	0.51695887
0.0032562814 	-0.033894469 	0.0093566792 	0.50534975
0.0032763819 	-0.036894899 	0.012490728 	0.49755314
0.0032964824 	-0.036894899 	0.012490728 	0.49755314
0.0033165829 	-0.03817259 	0.014098902 	0.4923664
0.0033366834 	-0.037913324 	0.013986779 	0.48910238
0.0033567839 	-0.037913324 	0.013986779 	0.48910238
0.0033768844 	-0.036454328 	0.0124181 	0.4873078
0.0033969849 	-0.034153275 	0.0097631909 	0.48674251
0.0034170854 	-0.034153275 	0.0097631909 	0.48674251
0.0034371859 	-0.03132896 	0.0062992076 	0.48733896
0.0034572864 	-0.028222728 	0.0021880858 	0.48910716
0.0034773869 	-0.024979037 	-0.0024654676 	0.49201461
0.0034974874 	-0.024979037 	-0.0024654676 	0.49201461
0.0035175879 	-0.021651362 	-0.0075604886 	0.49591692
0.0035376884 	-0.018231842 	-0.012982421 	0.50057022
0.0035577889 	-0.014689256 	-0.018592012 	0.50564516
0.0035778894 	-0.014689256 	-0.018592012 	0.50564516
0.0035979899 	-0.010997214 	-0.024220892 	0.51074513
0.0036180905 	-0.0071873383 	-0.029652299 	0.51537419
0.003638191 	-0.0033338158 	-0.034642422 	0.51897146
0.0036582915 	-0.0033338158 	-0.034642422 	0.51897146
0.003678392 	0.00046813697 	-0.038942734 	0.52095042
0.0036984925 	0.0040665238 	-0.042337475 	0.52070757
0.003718593 	0.0072633791 	-0.044696522 	0.51763708
0.0037386935 	0.0098393301 	-0.046038993 	0.51112703
0.003758794 	0.011588374 	-0.046569903 	0.50050527
0.0037788945 	0.011588374 	-0.046569903 	0.50050527
0.003798995 	0.012362837 	-0.046648444 	0.48492777
0.0038190955 	0.012128789 	-0.046645375 	0.46327285
0.003839196 	0.011010076 	-0.046720308 	0.43420346
0.0038592965 	0.0092785985 	-0.046648352 	0.39655238
0.003879397 	0.0072655237 	-0.045823493 	0.34992096
0.0038994975 	0.0052474442 	-0.043432442 	0.29505682
0.003919598 	0.0034015032 	-0.038687847 	0.23368799
0.0039396985 	0.001845171 	-0.031039201 	0.16801772
0.003959799 	0.00069655192 	-0.020355186 	0.10033519
0.0039798995 	7.8509788e-05 	-0.0071446562 	0.032870206
0.004 	7.8509788e-05 	-0.0071446562 	0.032870206
