0 	0.0016339304 	0.0068274613 	1.0529302
2.0100503e-05 	0.0049415982 	8.6098736e-06 	1.059291
4.0201005e-05 	0.0049415982 	8.6098736e-06 	1.059291
6.0301508e-05 	0.0035330937 	0.00019606313 	1.0650209
8.040201e-05 	0.0035330937 	0.00019606313 	1.0650209
0.00010050251 	0.0035330937 	0.00019606313 	1.0650209
0.00012060302 	0.0029485718 	0.001998239 	1.0700191
0.00014070352 	0.0029485718 	0.001998239 	1.0700191
0.00016080402 	0.0029485718 	0.001998239 	1.0700191
0.00018090452 	0.0025741605 	0.0035898127 	1.0741932
0.00020100503 	0.0025741605 	0.0035898127 	1.0741932
0.00022110553 	0.0025741605 	0.0035898127 	1.0741932
0.00024120603 	0.0022574479 	0.0046224801 	1.0774189
0.00026130653 	0.0022574479 	0.0046224801 	1.0774189
0.00028140704 	0.0020138547 	0.0050125045 	1.0795006
0.00030150754 	0.0020138547 	0.0050125045 	1.0795006
0.00032160804 	0.0020138547 	0.0050125045 	1.0795006
0.00034170854 	0.0019274179 	0.004784207 	1.0801475
0.00036180905 	0.0019274179 	0.004784207 	1.0801475
0.00038190955 	0.0019274179 	0.004784207 	1.0801475
0.00040201005 	0.0021079016 	0.0040089543 	1.0789966
0.00042211055 	0.0021079016 	0.0040089543 	1.0789966
0.00044221106 	0.0021079016 	0.0040089543 	1.0789966
0.00046231156 	0.0026551172 	0.0027946801 	1.0757095
0.00048241206 	0.0026551172 	0.0027946801 	1.0757095
0.00050251256 	0.0036227378 	0.0012946372 	1.0701202
0.00052261307 	0.0036227378 	0.0012946372 	1.0701202
0.00054271357 	0.0036227378 	0.0012946372 	1.0701202
0.00056281407 	0.0049885863 	-0.00029998408 	1.0623681
0.00058291457 	0.0049885863 	-0.00029998408 	1.0623681
0.00060301508 	0.0049885863 	-0.00029998408 	1.0623681
0.00062311558 	0.0066325623 	-0.0018195786 	1.0529607
0.00064321608 	0.0066325623 	-0.0018195786 	1.0529607
0.00066331658 	0.0066325623 	-0.0018195786 	1.0529607
0.00068341709 	0.0083342805 	-0.0031896681 	1.0427154
0.00070351759 	0.0083342805 	-0.0031896681 	1.0427154
0.00072361809 	0.0098120583 	-0.0044561007 	1.0326007
0.00074371859 	0.0098120583 	-0.0044561007 	1.0326007
0.0007638191 	0.0098120583 	-0.0044561007 	1.0326007
0.0007839196 	0.010806929 	-0.0057336045 	1.0235138
0.0008040201 	0.010806929 	-0.0057336045 	1.0235138
0.0008241206 	0.010806929 	-0.0057336045 	1.0235138
0.00084422111 	0.011163724 	-0.0071289822 	1.0160795
0.00086432161 	0.011163724 	-0.0071289822 	1.0160795
0.00088442211 	0.011163724 	-0.0071289822 	1.0160795
0.00090452261 	0.0108571 	-0.0086942232 	1.0105609
0.00092462312 	0.0108571 	-0.0086942232 	1.0105609
0.00094472362 	0.0099958339 	-0.01043203 	1.0068812
0.00096482412 	0.0099958339 	-0.01043203 	1.0068812
0.00098492462 	0.0099958339 	-0.01043203 	1.0068812
0.0010050251 	0.0086334251 	-0.012443758 	1.0045324
0.0010251256 	0.0086334251 	-0.012443758 	1.0045324
0.0010452261 	0.0086334251 	-0.012443758 	1.0045324
0.0010653266 	0.0069448214 	-0.014678118 	1.0032792
0.0010854271 	0.0069448214 	-0.014678118 	1.0032792
0.0011055276 	0.0069448214 	-0.014678118 	1.0032792
0.0011256281 	0.0051711636 	-0.016911352 	1.0025971
0.0011457286 	0.0051711636 	-0.016911352 	1.0025971
0.0011658291 	0.0029790902 	-0.017511907 	1.0087404
0.0011859296 	0.001334309 	-0.01998252 	1.0083717
0.0012060302 	0.0033829879 	-0.019020113 	1.0019622
0.0012261307 	0.0033829879 	-0.019020113 	1.0019622
0.0012462312 	0.00155025 	-0.020783305 	1.0011542
0.0012663317 	0.00155025 	-0.020783305 	1.0011542
0.0012864322 	0.00155025 	-0.020783305 	1.0011542
0.0013065327 	-0.00045800648 	-0.021881656 	1.0003082
0.0013266332 	-0.00045800648 	-0.021881656 	1.0003082
0.0013467337 	-0.00045800648 	-0.021881656 	1.0003082
0.0013668342 	-0.0027960362 	-0.02202295 	0.99974892
0.0013869347 	-0.0027960362 	-0.02202295 	0.99974892
0.0014070352 	-0.0027960362 	-0.02202295 	0.99974892
0.0014271357 	-0.0055468612 	-0.021125351 	0.99957206
0.0014472362 	-0.0055468612 	-0.021125351 	0.99957206
0.0014673367 	-0.0055468612 	-0.021125351 	0.99957206
0.0014874372 	-0.0086701848 	-0.019429308 	0.99930808
0.0015075377 	-0.0086701848 	-0.019429308 	0.99930808
0.0015276382 	-0.012024932 	-0.017374033 	0.99803628
0.0015477387 	-0.012024932 	-0.017374033 	0.99803628
0.0015678392 	-0.012024932 	-0.017374033 	0.99803628
0.0015879397 	-0.015366925 	-0.015269755 	0.99486851
0.0016080402 	-0.015366925 	-0.015269755 	0.99486851
0.0016281407 	-0.015366925 	-0.015269755 	0.99486851
0.0016482412 	-0.018322951 	-0.013021996 	0.98929253
0.0016683417 	-0.018322951 	-0.013021996 	0.98929253
0.0016884422 	-0.020379288 	-0.010187655 	0.98127749
0.0017085427 	-0.020379288 	-0.010187655 	0.98127749
0.0017286432 	-0.020379288 	-0.010187655 	0.98127749
0.0017487437 	-0.021132285 	-0.0064590047 	0.97137893
0.0017688442 	-0.021132285 	-0.0064590047 	0.97137893
0.0017889447 	-0.021132285 	-0.0064590047 	0.97137893
0.0018090452 	-0.020524612 	-0.0019051642 	0.96060065
0.0018291457 	-0.020524612 	-0.0019051642 	0.96060065
0.0018492462 	-0.018751722 	0.0030921181 	0.94999559
0.0018693467 	-0.018751722 	0.0030921181 	0.94999559
0.0018894472 	-0.018751722 	0.0030921181 	0.94999559
0.0019095477 	-0.016168201 	0.0081620257 	0.94039423
0.0019296482 	-0.016168201 	0.0081620257 	0.94039423
0.0019497487 	-0.013103035 	0.013004039 	0.93234907
0.0019698492 	-0.013103035 	0.013004039 	0.93234907
0.0019899497 	-0.0097555976 	0.017396437 	0.92609064
0.0020100503 	-0.0097555976 	0.017396437 	0.92609064
0.0020301508 	-0.0097555976 	0.017396437 	0.92609064
0.0020502513 	-0.0062213847 	0.021204909 	0.92156221
0.0020703518 	-0.0062213847 	0.021204909 	0.92156221
0.0020904523 	-0.0025384145 	0.02435771 	0.9185337
0.0021105528 	-0.0025384145 	0.02435771 	0.9185337
0.0021306533 	-0.0025384145 	0.02435771 	0.9185337
0.0021507538 	0.0013361431 	0.026821671 	0.91670083
0.0021708543 	0.0013361431 	0.026821671 	0.91670083
0.0021909548 	0.0053978486 	0.028585182 	0.91574975
0.0022110553 	0.0053978486 	0.028585182 	0.91574975
0.0022311558 	0.0095698818 	0.029666553 	0.91541275
0.0022512563 	0.0095698818 	0.029666553 	0.91541275
0.0022713568 	0.013798701 	0.030105092 	0.91545317
0.0022914573 	0.013798701 	0.030105092 	0.91545317
0.0023115578 	0.013798701 	0.030105092 	0.91545317
0.0023316583 	0.017964474 	0.029963206 	0.91571149
0.0023517588 	0.017964474 	0.029963206 	0.91571149
0.0023718593 	0.0219125 	0.029339088 	0.91607555
0.0023919598 	0.0219125 	0.029339088 	0.91607555
0.0024120603 	0.025486121 	0.028327929 	0.91647021
0.0024321608 	0.025486121 	0.028327929 	0.91647021
0.0024522613 	0.028539648 	0.027030126 	0.91685589
0.0024723618 	0.028539648 	0.027030126 	0.91685589
0.0024924623 	0.030946222 	0.02554909 	0.91719649
0.0025125628 	0.030946222 	0.02554909 	0.91719649
0.0025326633 	0.032607827 	0.023975591 	0.91744985
0.0025527638 	0.032607827 	0.023975591 	0.91744985
0.0025728643 	0.033472565 	0.022386487 	0.91756275
0.0025929648 	0.033472565 	0.022386487 	0.91756275
0.0026130653 	0.033524549 	0.020842951 	0.91746523
0.0026331658 	0.033524549 	0.020842951 	0.91746523
0.0026532663 	0.032787664 	0.019392426 	0.91706468
0.0026733668 	0.032787664 	0.019392426 	0.91706468
0.0026934673 	0.031338415 	0.01806215 	0.9162342
0.0027135678 	0.031338415 	0.01806215 	0.9162342
0.0027336683 	0.029294159 	0.016851257 	0.91480224
0.0027537688 	0.029294159 	0.016851257 	0.91480224
0.0027738693 	0.026817644 	0.015707265 	0.91255864
0.0027939698 	0.026817644 	0.015707265 	0.91255864
0.0028140704 	0.02410416 	0.01449609 	0.90929195
0.0028341709 	0.02410416 	0.01449609 	0.90929195
0.0028542714 	0.021360045 	0.012974768 	0.90486053
0.0028743719 	0.018788678 	0.010788118 	0.89924462
0.0028944724 	0.018788678 	0.010788118 	0.89924462
0.0029145729 	0.016595948 	0.0075030925 	0.89257816
0.0029346734 	0.016595948 	0.0075030925 	0.89257816
0.0029547739 	0.01496827 	0.0026881294 	0.88510321
0.0029748744 	0.01496827 	0.0026881294 	0.88510321
0.0029949749 	0.013992009 	-0.0039846062 	0.87705039
0.0030150754 	0.013687072 	-0.012637492 	0.86854872
0.0030351759 	0.013687072 	-0.012637492 	0.86854872
0.0030552764 	0.014040572 	-0.023113689 	0.85958076
0.0030753769 	0.014040572 	-0.023113689 	0.85958076
0.0030954774 	0.014960469 	-0.034978313 	0.85001069
0.0031155779 	0.016275974 	-0.047570117 	0.83968289
0.0031356784 	0.016275974 	-0.047570117 	0.83968289
0.0031557789 	0.01775223 	-0.060087823 	0.82856041
0.0031758794 	0.01775223 	-0.060087823 	0.82856041
0.0031959799 	0.01912209 	-0.071691122 	0.81682729
0.0032160804 	0.020145118 	-0.081607668 	0.80490473
0.0032361809 	0.020145118 	-0.081607668 	0.80490473
0.0032562814 	0.020700324 	-0.089232523 	0.7933452
0.0032763819 	0.020865081 	-0.094208309 	0.78265433
0.0032964824 	0.020865081 	-0.094208309 	0.78265433
0.0033165829 	0.020917042 	-0.09647041 	0.77316911
0.0033366834 	0.021225689 	-0.096216921 	0.76509621
0.0033567839 	0.021225689 	-0.096216921 	0.76509621
0.0033768844 	0.022082031 	-0.093793023 	0.75863622
0.0033969849 	0.023568576 	-0.089568153 	0.75400064
0.0034170854 	0.023568576 	-0.089568153 	0.75400064
0.0034371859 	0.025539176 	-0.083890591 	0.75127187
0.0034572864 	0.027685635 	-0.077102003 	0.75027097
0.0034773869 	0.029622773 	-0.069551791 	0.75058296
0.0034974874 	0.029622773 	-0.069551791 	0.75058296
0.0035175879 	0.030952717 	-0.061561974 	0.75177144
0.0035376884 	0.031315757 	-0.053301549 	0.75369399
0.0035577889 	0.030465721 	-0.044645525 	0.75652485
0.0035778894 	0.030465721 	-0.044645525 	0.75652485
0.0035979899 	0.028408171 	-0.035233363 	0.75997445
0.0036180905 	0.025506671 	-0.024846888 	0.76201573
0.003638191 	0.022451262 	-0.014046479 	0.75845509
0.0036582915 	0.022451262 	-0.014046479 	0.75845509
0.003678392 	0.020187295 	-0.0046903773 	0.74446871
0.0036984925 	0.01946122 	0.00045724575 	0.71735752
0.003718593 	0.02044072 	-0.0008631093 	0.67819007
0.0037386935 	0.022728444 	-0.0088648895 	0.63140299
0.003758794 	0.0254152 	-0.021381735 	0.58267861
0.0037788945 	0.0254152 	-0.021381735 	0.58267861
0.003798995 	0.0274454 	-0.034803881 	0.53682432
0.0038190955 	0.027971657 	-0.044981235 	0.4967952
0.003839196 	0.026568421 	-0.047564932 	0.46356881
0.0038592965 	0.023294858 	-0.039011035 	0.43578542
0.003879397 	0.018525357 	-0.019105687 	0.40858197
0.0038994975 	0.012848 	0.0070260899 	0.37321898
0.003919598 	0.0072639876 	0.030156554 	0.32026758
0.0039396985 	0.0029257227 	0.041289416 	0.24505545
0.003959799 	0.00049155958 	0.035736985 	0.15176748
0.0039798995 	-0.00010610711 	0.014849773 	0.050444994
0.004 	-0.00010610711 	0.014849773 	0.050444994
