0 	0.00098993472 	-0.0073570455 	1.0236062
2.0100503e-05 	-0.0042091836 	-0.00082583439 	1.0236489
4.0201005e-05 	-0.0042091836 	-0.00082583439 	1.0236489
6.0301508e-05 	-0.0011444192 	-0.00030271912 	1.0238261
8.040201e-05 	-0.0011444192 	-0.00030271912 	1.0238261
0.00010050251 	-0.0011444192 	-0.00030271912 	1.0238261
0.00012060302 	0.0014358796 	-0.0021181974 	1.0243114
0.00014070352 	0.0014358796 	-0.0021181974 	1.0243114
0.00016080402 	0.0014358796 	-0.0021181974 	1.0243114
0.00018090452 	0.0034109215 	-0.0043287428 	1.0252889
0.00020100503 	0.0034109215 	-0.0043287428 	1.0252889
0.00022110553 	0.0034109215 	-0.0043287428 	1.0252889
0.00024120603 	0.0047678736 	-0.0065216218 	1.026914
0.00026130653 	0.0047678736 	-0.0065216218 	1.026914
0.00028140704 	0.0055337422 	-0.0085158606 	1.0292378
0.00030150754 	0.0055337422 	-0.0085158606 	1.0292378
0.00032160804 	0.0055337422 	-0.0085158606 	1.0292378
0.00034170854 	0.0058014554 	-0.010246863 	1.0321449
0.00036180905 	0.0058014554 	-0.010246863 	1.0321449
0.00038190955 	0.0058014554 	-0.010246863 	1.0321449
0.00040201005 	0.0057236595 	-0.01171887 	1.0353332
0.00042211055 	0.0057236595 	-0.01171887 	1.0353332
0.00044221106 	0.0057236595 	-0.01171887 	1.0353332
0.00046231156 	0.0054683481 	-0.01297015 	1.0383593
0.00048241206 	0.0054683481 	-0.01297015 	1.0383593
0.00050251256 	0.0051684194 	-0.014029775 	1.040716
0.00052261307 	0.0051684194 	-0.014029775 	1.040716
0.00054271357 	0.0051684194 	-0.014029775 	1.040716
0.00056281407 	0.0049160041 	-0.014905231 	1.0419201
0.00058291457 	0.0049160041 	-0.014905231 	1.0419201
0.00060301508 	0.0049160041 	-0.014905231 	1.0419201
0.00062311558 	0.00475675 	-0.015595446 	1.0415901
0.00064321608 	0.00475675 	-0.015595446 	1.0415901
0.00066331658 	0.00475675 	-0.015595446 	1.0415901
0.00068341709 	0.0047032898 	-0.016118071 	1.0394946
0.00070351759 	0.0047032898 	-0.016118071 	1.0394946
0.00072361809 	0.004754493 	-0.016535986 	1.0355748
0.00074371859 	0.004754493 	-0.016535986 	1.0355748
0.0007638191 	0.004754493 	-0.016535986 	1.0355748
0.0007839196 	0.0049117719 	-0.01693674 	1.0299321
0.0008040201 	0.0049117719 	-0.01693674 	1.0299321
0.0008241206 	0.0049117719 	-0.01693674 	1.0299321
0.00084422111 	0.0051781558 	-0.017418475 	1.0228017
0.00086432161 	0.0051781558 	-0.017418475 	1.0228017
0.00088442211 	0.0051781558 	-0.017418475 	1.0228017
0.00090452261 	0.0055540054 	-0.018064569 	1.0145325
0.00092462312 	0.0055540054 	-0.018064569 	1.0145325
0.00094472362 	0.0060380153 	-0.01893557 	1.005565
0.00096482412 	0.0060380153 	-0.01893557 	1.005565
0.00098492462 	0.0060380153 	-0.01893557 	1.005565
0.0010050251 	0.0067744205 	-0.019975617 	0.995915
0.0010251256 	0.0067744205 	-0.019975617 	0.995915
0.0010452261 	0.0067744205 	-0.019975617 	0.995915
0.0010653266 	0.0078648261 	-0.021150016 	0.98631419
0.0010854271 	0.0078648261 	-0.021150016 	0.98631419
0.0011055276 	0.0063140679 	-0.024229271 	0.98011971
0.0011256281 	0.0086460274 	-0.026971543 	0.97086233
0.0011457286 	0.0086460274 	-0.026971543 	0.97086233
0.0011658291 	0.0086460274 	-0.026971543 	0.97086233
0.0011859296 	0.011415972 	-0.028765113 	0.96273949
0.0012060302 	0.0108899 	-0.02214184 	0.970328
0.0012261307 	0.0108899 	-0.02214184 	0.970328
0.0012462312 	0.012562522 	-0.021299114 	0.964144
0.0012663317 	0.012562522 	-0.021299114 	0.964144
0.0012864322 	0.012562522 	-0.021299114 	0.964144
0.0013065327 	0.01401418 	-0.019330817 	0.95910041
0.0013266332 	0.01401418 	-0.019330817 	0.95910041
0.0013467337 	0.01401418 	-0.019330817 	0.95910041
0.0013668342 	0.015020693 	-0.016328839 	0.95514242
0.0013869347 	0.015020693 	-0.016328839 	0.95514242
0.0014070352 	0.015020693 	-0.016328839 	0.95514242
0.0014271357 	0.015437258 	-0.012552164 	0.95221991
0.0014472362 	0.015437258 	-0.012552164 	0.95221991
0.0014673367 	0.015437258 	-0.012552164 	0.95221991
0.0014874372 	0.015212065 	-0.0083475224 	0.95024223
0.0015075377 	0.015212065 	-0.0083475224 	0.95024223
0.0015276382 	0.014379798 	-0.0040765284 	0.94903468
0.0015477387 	0.014379798 	-0.0040765284 	0.94903468
0.0015678392 	0.020680097 	-0.010894006 	0.93424426
0.0015879397 	0.020182649 	-0.0061305015 	0.9326655
0.0016080402 	0.013046256 	-7.548466e-05 	0.9483198
0.0016281407 	0.013046256 	-7.548466e-05 	0.9483198
0.0016482412 	0.011353297 	0.003362703 	0.94774428
0.0016683417 	0.011353297 	0.003362703 	0.94774428
0.0016884422 	0.0094236058 	0.0059955098 	0.94693445
0.0017085427 	0.0094236058 	0.0059955098 	0.94693445
0.0017286432 	0.0094236058 	0.0059955098 	0.94693445
0.0017487437 	0.0073324445 	0.0076641617 	0.94558938
0.0017688442 	0.0073324445 	0.0076641617 	0.94558938
0.0017889447 	0.0073324445 	0.0076641617 	0.94558938
0.0018090452 	0.0051143076 	0.0083088477 	0.94356881
0.0018291457 	0.0051143076 	0.0083088477 	0.94356881
0.0018492462 	0.0027855164 	0.0079611405 	0.94096116
0.0018693467 	0.0027855164 	0.0079611405 	0.94096116
0.0018894472 	0.0027855164 	0.0079611405 	0.94096116
0.0019095477 	0.00037838155 	0.0067304499 	0.93807914
0.0019296482 	0.00037838155 	0.0067304499 	0.93807914
0.0019497487 	-0.0020233157 	0.0047274694 	0.9353717
0.0019698492 	-0.0020233157 	0.0047274694 	0.9353717
0.0019899497 	-0.0042622957 	0.0020022988 	0.93329361
0.0020100503 	-0.0042622957 	0.0020022988 	0.93329361
0.0020301508 	-0.0042622957 	0.0020022988 	0.93329361
0.0020502513 	-0.0061393112 	-0.0014785006 	0.93222215
0.0020703518 	-0.0061393112 	-0.0014785006 	0.93222215
0.0020904523 	-0.0074416307 	-0.005745355 	0.93240967
0.0021105528 	-0.0074416307 	-0.005745355 	0.93240967
0.0021306533 	-0.0074416307 	-0.005745355 	0.93240967
0.0021507538 	-0.0079223704 	-0.010657995 	0.93374387
0.0021708543 	-0.0079223704 	-0.010657995 	0.93374387
0.0021909548 	-0.0072163162 	-0.015551959 	0.93516835
0.0022110553 	-0.0072163162 	-0.015551959 	0.93516835
0.0022311558 	-0.0050719586 	-0.01930501 	0.93444056
0.0022512563 	-0.0050719586 	-0.01930501 	0.93444056
0.0022713568 	-0.0016681359 	-0.020976181 	0.92938177
0.0022914573 	-0.0016681359 	-0.020976181 	0.92938177
0.0023115578 	-0.0016681359 	-0.020976181 	0.92938177
0.0023316583 	0.002113164 	-0.020845917 	0.92029626
0.0023517588 	0.002113164 	-0.020845917 	0.92029626
0.0023718593 	0.0049346766 	-0.020290535 	0.91087427
0.0023919598 	0.0049346766 	-0.020290535 	0.91087427
0.0024120603 	0.0059435395 	-0.020406744 	0.90550592
0.0024321608 	0.0059435395 	-0.020406744 	0.90550592
0.0024522613 	0.0052531755 	-0.020955535 	0.90583578
0.0024723618 	0.0052531755 	-0.020955535 	0.90583578
0.0024924623 	0.0037134621 	-0.020732774 	0.9102325
0.0025125628 	0.0037134621 	-0.020732774 	0.9102325
0.0025326633 	0.0022650919 	-0.018575437 	0.91586881
0.0025527638 	0.0022650919 	-0.018575437 	0.91586881
0.0025728643 	0.001476347 	-0.014030561 	0.9206942
0.0025929648 	0.001476347 	-0.014030561 	0.9206942
0.0026130653 	0.0015075832 	-0.0074214087 	0.92400815
0.0026331658 	0.0015075832 	-0.0074214087 	0.92400815
0.0026532663 	0.0022301312 	0.0004575104 	0.92609979
0.0026733668 	0.0022301312 	0.0004575104 	0.92609979
0.0026934673 	0.0032679751 	0.0088307194 	0.92771417
0.0027135678 	0.0032679751 	0.0088307194 	0.92771417
0.0027336683 	0.0041694729 	0.017168436 	0.92973823
0.0027537688 	0.0041694729 	0.017168436 	0.92973823
0.0027738693 	0.0046072256 	0.025253425 	0.9329325
0.0027939698 	0.0046072256 	0.025253425 	0.9329325
0.0028140704 	0.0043896292 	0.033108809 	0.93775113
0.0028341709 	0.0043896292 	0.033108809 	0.93775113
0.0028542714 	0.0034689046 	0.040864548 	0.94426029
0.0028743719 	0.0019309248 	0.048667997 	0.95218123
0.0028944724 	0.0019309248 	0.048667997 	0.95218123
0.0029145729 	-1.0609227e-05 	0.05666965 	0.96102853
0.0029346734 	-1.0609227e-05 	0.05666965 	0.96102853
0.0029547739 	-0.0020788269 	0.064964517 	0.9702238
0.0029748744 	-0.0020788269 	0.064964517 	0.9702238
0.0029949749 	-0.00396678 	0.073565631 	0.97918828
0.0030150754 	-0.0053827973 	0.082357466 	0.98734648
0.0030351759 	-0.0053827973 	0.082357466 	0.98734648
0.0030552764 	-0.0060903408 	0.091131688 	0.99417335
0.0030753769 	-0.0060903408 	0.091131688 	0.99417335
0.0030954774 	-0.0058743036 	0.099599351 	0.99919198
0.0031155779 	-0.0045975259 	0.10741907 	1.0019762
0.0031356784 	-0.0045975259 	0.10741907 	1.0019762
0.0031557789 	-0.0022378823 	0.11424624 	1.0022371
0.0031758794 	-0.0022378823 	0.11424624 	1.0022371
0.0031959799 	0.0011310351 	0.11973715 	0.99985756
0.0032160804 	0.0053214149 	0.12356849 	0.99493514
0.0032361809 	0.0053214149 	0.12356849 	0.99493514
0.0032562814 	0.010034189 	0.12545038 	0.98778045
0.0032763819 	0.014878774 	0.12515756 	0.97886339
0.0032964824 	0.014878774 	0.12515756 	0.97886339
0.0033165829 	0.019396797 	0.12260097 	0.96878881
0.0033366834 	0.023110254 	0.11786361 	0.95818353
0.0033567839 	0.023110254 	0.11786361 	0.95818353
0.0033768844 	0.025590594 	0.1112604 	0.9476042
0.0033969849 	0.026563003 	0.1033152 	0.93738082
0.0034170854 	0.026563003 	0.1033152 	0.93738082
0.0034371859 	0.025991928 	0.09467323 	0.92746525
0.0034572864 	0.024115018 	0.085888403 	0.91734271
0.0034773869 	0.021386036 	0.077153977 	0.90611104
0.0034974874 	0.021386036 	0.077153977 	0.90611104
0.0035175879 	0.018326587 	0.068182327 	0.89279033
0.0035376884 	0.01539465 	0.058334947 	0.87668072
0.0035577889 	0.012915893 	0.047046578 	0.8575417
0.0035778894 	0.012915893 	0.047046578 	0.8575417
0.0035979899 	0.011073576 	0.034257174 	0.83550711
0.0036180905 	0.0097919007 	0.02067156 	0.8109536
0.003638191 	0.0088678824 	0.0076775665 	0.78439952
0.0036582915 	0.0088678824 	0.0076775665 	0.78439952
0.003678392 	0.0080832912 	-0.0029791693 	0.75621738
0.0036984925 	0.007186954 	-0.0096893446 	0.72600993
0.003718593 	0.0061152167 	-0.011490929 	0.69189314
0.0037386935 	0.005056194 	-0.0084688788 	0.65066262
0.003758794 	0.004324092 	-0.0018215836 	0.59948184
0.0037788945 	0.004324092 	-0.0018215836 	0.59948184
0.003798995 	0.0041053285 	0.0064677977 	0.53827226
0.0038190955 	0.0042688275 	0.014317493 	0.47052338
0.003839196 	0.0044493595 	0.020185597 	0.40156525
0.0038592965 	0.0043575745 	0.023391267 	0.33581949
0.003879397 	0.0039310113 	0.024018851 	0.27525701
0.0038994975 	0.0032332201 	0.022555834 	0.21966987
0.003919598 	0.0023757405 	0.019543382 	0.16779568
0.0039396985 	0.0014767124 	0.015353179 	0.11828048
0.003959799 	0.00066998571 	0.010114064 	0.07017159
0.0039798995 	0.0001039482 	0.0037744669 	0.023076072
0.004 	0.0001039482 	0.0037744669 	0.023076072
