0 	-0.033581753 	0.01096944 	1.0222173
2.0100503e-05 	0.007976202 	0.036290268 	1.0213723
4.0201005e-05 	0.007976202 	0.036290268 	1.0213723
6.0301508e-05 	0.021841032 	0.03269746 	1.020666
8.040201e-05 	0.021841032 	0.03269746 	1.020666
0.00010050251 	0.021841032 	0.03269746 	1.020666
0.00012060302 	0.024899722 	0.032996612 	1.020479
0.00014070352 	0.024899722 	0.032996612 	1.020479
0.00016080402 	0.024899722 	0.032996612 	1.020479
0.00018090452 	0.02632927 	0.03344164 	1.0211129
0.00020100503 	0.02632927 	0.03344164 	1.0211129
0.00022110553 	0.02632927 	0.03344164 	1.0211129
0.00024120603 	0.027250191 	0.032626252 	1.0224957
0.00026130653 	0.027250191 	0.032626252 	1.0224957
0.00028140704 	0.027799627 	0.030232378 	1.0241356
0.00030150754 	0.027799627 	0.030232378 	1.0241356
0.00032160804 	0.027799627 	0.030232378 	1.0241356
0.00034170854 	0.027907247 	0.026540627 	1.0253114
0.00036180905 	0.027907247 	0.026540627 	1.0253114
0.00038190955 	0.027907247 	0.026540627 	1.0253114
0.00040201005 	0.027484243 	0.022110192 	1.0254053
0.00042211055 	0.027484243 	0.022110192 	1.0254053
0.00044221106 	0.027484243 	0.022110192 	1.0254053
0.00046231156 	0.026465158 	0.017437775 	1.0242235
0.00048241206 	0.026465158 	0.017437775 	1.0242235
0.00050251256 	0.024795376 	0.01266236 	1.0221053
0.00052261307 	0.024795376 	0.01266236 	1.0221053
0.00054271357 	0.024795376 	0.01266236 	1.0221053
0.00056281407 	0.022411679 	0.0075152696 	1.0197113
0.00058291457 	0.022411679 	0.0075152696 	1.0197113
0.00060301508 	0.022411679 	0.0075152696 	1.0197113
0.00062311558 	0.019294111 	0.0016583329 	1.0176119
0.00064321608 	0.019294111 	0.0016583329 	1.0176119
0.00066331658 	0.019294111 	0.0016583329 	1.0176119
0.00068341709 	0.015553686 	-0.0048443682 	1.0160092
0.00070351759 	0.015553686 	-0.0048443682 	1.0160092
0.00072361809 	0.011456475 	-0.011398629 	1.0147931
0.00074371859 	0.011456475 	-0.011398629 	1.0147931
0.0007638191 	0.011456475 	-0.011398629 	1.0147931
0.0007839196 	0.0073526541 	-0.017227251 	1.0137696
0.0008040201 	0.0073526541 	-0.017227251 	1.0137696
0.0008241206 	0.0073526541 	-0.017227251 	1.0137696
0.00084422111 	0.0035532083 	-0.021823676 	1.0128035
0.00086432161 	0.0035532083 	-0.021823676 	1.0128035
0.00088442211 	0.0035532083 	-0.021823676 	1.0128035
0.00090452261 	0.00024797243 	-0.025084047 	1.0118255
0.00092462312 	0.00024797243 	-0.025084047 	1.0118255
0.00094472362 	-0.0024556814 	-0.027191786 	1.0107792
0.00096482412 	-0.0015139984 	-0.024538071 	1.0131847
0.00098492462 	-0.0015139984 	-0.024538071 	1.0131847
0.0010050251 	-0.00379589 	-0.026094649 	1.0117395
0.0010251256 	-0.0047141281 	-0.028518041 	1.0094886
0.0010452261 	-0.0047141281 	-0.028518041 	1.0094886
0.0010653266 	-0.0063834412 	-0.02897066 	1.007764
0.0010854271 	-0.0063834412 	-0.02897066 	1.007764
0.0011055276 	-0.0063834412 	-0.02897066 	1.007764
0.0011256281 	-0.0074162925 	-0.028615822 	1.0054179
0.0011457286 	-0.0074162925 	-0.028615822 	1.0054179
0.0011658291 	-0.0074162925 	-0.028615822 	1.0054179
0.0011859296 	-0.007891465 	-0.027401804 	1.0020362
0.0012060302 	-0.007891465 	-0.027401804 	1.0020362
0.0012261307 	-0.007891465 	-0.027401804 	1.0020362
0.0012462312 	-0.007911903 	-0.025267101 	0.99706973
0.0012663317 	-0.007911903 	-0.025267101 	0.99706973
0.0012864322 	-0.007911903 	-0.025267101 	0.99706973
0.0013065327 	-0.0076261116 	-0.022193287 	0.98985537
0.0013266332 	-0.0076261116 	-0.022193287 	0.98985537
0.0013467337 	-0.0076261116 	-0.022193287 	0.98985537
0.0013668342 	-0.0072214172 	-0.018244616 	0.97982003
0.0013869347 	-0.0072214172 	-0.018244616 	0.97982003
0.0014070352 	-0.0072214172 	-0.018244616 	0.97982003
0.0014271357 	-0.0068813832 	-0.013605097 	0.96692194
0.0014472362 	-0.0068813832 	-0.013605097 	0.96692194
0.0014673367 	-0.0068813832 	-0.013605097 	0.96692194
0.0014874372 	-0.0067254034 	-0.0086900728 	0.9520127
0.0015075377 	-0.0067254034 	-0.0086900728 	0.9520127
0.0015276382 	-0.0068049075 	-0.0042920187 	0.93670971
0.0015477387 	-0.0068049075 	-0.0042920187 	0.93670971
0.0015678392 	-0.0068049075 	-0.0042920187 	0.93670971
0.0015879397 	-0.0071534932 	-0.0014737087 	0.92285858
0.0016080402 	-0.0071534932 	-0.0014737087 	0.92285858
0.0016281407 	-0.0071534932 	-0.0014737087 	0.92285858
0.0016482412 	-0.0077758938 	-0.0010799497 	0.9119277
0.0016683417 	-0.0077758938 	-0.0010799497 	0.9119277
0.0016884422 	-0.0086355487 	-0.0032894027 	0.90453201
0.0017085427 	-0.0086355487 	-0.0032894027 	0.90453201
0.0017286432 	-0.0086355487 	-0.0032894027 	0.90453201
0.0017487437 	-0.0096611487 	-0.0075757545 	0.90034342
0.0017688442 	-0.0096611487 	-0.0075757545 	0.90034342
0.0017889447 	-0.0096611487 	-0.0075757545 	0.90034342
0.0018090452 	-0.010750522 	-0.012972394 	0.89846444
0.0018291457 	-0.010750522 	-0.012972394 	0.89846444
0.0018492462 	-0.011794659 	-0.018439401 	0.89791014
0.0018693467 	-0.011794659 	-0.018439401 	0.89791014
0.0018894472 	-0.011794659 	-0.018439401 	0.89791014
0.0019095477 	-0.012702089 	-0.023137744 	0.89785908
0.0019296482 	-0.012702089 	-0.023137744 	0.89785908
0.0019497487 	-0.013398537 	-0.026624008 	0.89769348
0.0019698492 	-0.013398537 	-0.026624008 	0.89769348
0.0019899497 	-0.013855314 	-0.028929787 	0.89701883
0.0020100503 	-0.013855314 	-0.028929787 	0.89701883
0.0020301508 	-0.013855314 	-0.028929787 	0.89701883
0.0020502513 	-0.014098557 	-0.03046293 	0.89569692
0.0020703518 	-0.014098557 	-0.03046293 	0.89569692
0.0020904523 	-0.014179818 	-0.031788313 	0.89381398
0.0021105528 	-0.014179818 	-0.031788313 	0.89381398
0.0021306533 	-0.014179818 	-0.031788313 	0.89381398
0.0021507538 	-0.014156783 	-0.03340788 	0.89152349
0.0021708543 	-0.014156783 	-0.03340788 	0.89152349
0.0021909548 	-0.014061689 	-0.035644108 	0.88886933
0.0022110553 	-0.014061689 	-0.035644108 	0.88886933
0.0022311558 	-0.013894588 	-0.038631506 	0.88569633
0.0022512563 	-0.013894588 	-0.038631506 	0.88569633
0.0022713568 	-0.013632537 	-0.042349036 	0.8817189
0.0022914573 	-0.013632537 	-0.042349036 	0.8817189
0.0023115578 	-0.013632537 	-0.042349036 	0.8817189
0.0023316583 	-0.013249214 	-0.046650727 	0.87667452
0.0023517588 	-0.013249214 	-0.046650727 	0.87667452
0.0023718593 	-0.012721348 	-0.051282811 	0.87048075
0.0023919598 	-0.012721348 	-0.051282811 	0.87048075
0.0024120603 	-0.012031015 	-0.055884046 	0.86331421
0.0024321608 	-0.012031015 	-0.055884046 	0.86331421
0.0024522613 	-0.011166706 	-0.060009215 	0.85558164
0.0024723618 	-0.011166706 	-0.060009215 	0.85558164
0.0024924623 	-0.01011928 	-0.063175924 	0.84779653
0.0025125628 	-0.01011928 	-0.063175924 	0.84779653
0.0025326633 	-0.0088827335 	-0.064940418 	0.84042641
0.0025527638 	-0.0088827335 	-0.064940418 	0.84042641
0.0025728643 	-0.0074674794 	-0.064988899 	0.83378812
0.0025929648 	-0.0074674794 	-0.064988899 	0.83378812
0.0026130653 	-0.0059086536 	-0.063203084 	0.82802228
0.0026331658 	-0.0059086536 	-0.063203084 	0.82802228
0.0026532663 	-0.0042673146 	-0.059688711 	0.82313671
0.0026733668 	-0.0042673146 	-0.059688711 	0.82313671
0.0026934673 	-0.0026556768 	-0.054762553 	0.81907427
0.0027135678 	-0.0026556768 	-0.054762553 	0.81907427
0.0027336683 	-0.0011892765 	-0.048874641 	0.81574187
0.0027537688 	-0.0011892765 	-0.048874641 	0.81574187
0.0027738693 	4.30222e-05 	-0.04252033 	0.81301889
0.0027939698 	4.30222e-05 	-0.04252033 	0.81301889
0.0028140704 	0.00097781409 	-0.036147877 	0.81074454
0.0028341709 	0.00097781409 	-0.036147877 	0.81074454
0.0028542714 	0.0016122907 	-0.03009261 	0.80872014
0.0028743719 	0.0019933036 	-0.024553168 	0.80674092
0.0028944724 	0.0019933036 	-0.024553168 	0.80674092
0.0029145729 	0.0021978113 	-0.01959073 	0.80463163
0.0029346734 	0.0021978113 	-0.01959073 	0.80463163
0.0029547739 	0.0023010843 	-0.015148205 	0.80229107
0.0029748744 	0.0023010843 	-0.015148205 	0.80229107
0.0029949749 	0.0023406439 	-0.011067156 	0.79971839
0.0030150754 	0.0022887255 	-0.0071288379 	0.79700191
0.0030351759 	0.0022887255 	-0.0071288379 	0.79700191
0.0030552764 	0.0020954148 	-0.0031283879 	0.79428855
0.0030753769 	0.0020954148 	-0.0031283879 	0.79428855
0.0030954774 	0.0017430525 	0.0010687567 	0.79173424
0.0031155779 	0.0012193875 	0.0054405569 	0.78945581
0.0031356784 	0.0012193875 	0.0054405569 	0.78945581
0.0031557789 	0.00055539248 	0.0098277573 	0.78749778
0.0031758794 	0.00055539248 	0.0098277573 	0.78749778
0.0031959799 	-0.00012964923 	0.01397626 	0.78583128
0.0032160804 	-0.00065179007 	0.017611601 	0.78436508
0.0032361809 	-0.00065179007 	0.017611601 	0.78436508
0.0032562814 	-0.00080731483 	0.020510783 	0.78296082
0.0032763819 	-0.00042557541 	0.022545206 	0.78146219
0.0032964824 	-0.00042557541 	0.022545206 	0.78146219
0.0033165829 	0.00060410048 	0.0236998 	0.77973361
0.0033366834 	0.0022969328 	0.024069823 	0.7776993
0.0033567839 	0.0022969328 	0.024069823 	0.7776993
0.0033768844 	0.0045610393 	0.023832723 	0.77536367
0.0033969849 	0.0072241559 	0.023203476 	0.77280731
0.0034170854 	0.0072241559 	0.023203476 	0.77280731
0.0034371859 	0.010052054 	0.022371446 	0.77013235
0.0034572864 	0.012801425 	0.02146253 	0.76742934
0.0034773869 	0.015265869 	0.020515837 	0.76473231
0.0034974874 	0.015265869 	0.020515837 	0.76473231
0.0035175879 	0.017306158 	0.01950267 	0.7620323
0.0035376884 	0.018859756 	0.018354102 	0.75929527
0.0035577889 	0.019934574 	0.017003565 	0.75649566
0.0035778894 	0.019934574 	0.017003565 	0.75649566
0.0035979899 	0.020584022 	0.015393311 	0.75359461
0.0036180905 	0.020863538 	0.013464097 	0.75050226
0.003638191 	0.020786801 	0.011137383 	0.74701265
0.0036582915 	0.020786801 	0.011137383 	0.74701265
0.003678392 	0.020304713 	0.0083341962 	0.74272569
0.0036984925 	0.019336024 	0.0050518893 	0.73692735
0.003718593 	0.017831367 	0.0014648106 	0.72842115
0.0037386935 	0.015789711 	-0.0020482657 	0.71529824
0.003758794 	0.013338322 	-0.0050532831 	0.69466049
0.0037788945 	0.013338322 	-0.0050532831 	0.69466049
0.003798995 	0.01079982 	-0.0073751604 	0.66253865
0.0038190955 	0.00862344 	-0.0093838108 	0.61469751
0.003839196 	0.007201265 	-0.011875562 	0.54907489
0.0038592965 	0.0065673854 	-0.01538524 	0.46873333
0.003879397 	0.0062513053 	-0.0194188 	0.38189669
0.0038994975 	0.0056320596 	-0.022455592 	0.29770793
0.003919598 	0.0044245954 	-0.022895352 	0.22143278
0.0039396985 	0.0027935202 	-0.019972058 	0.1531662
0.003959799 	0.0011985625 	-0.013893558 	0.090079782
0.0039798995 	0.00015111423 	-0.0053073714 	0.029522132
0.004 	0.00015111423 	-0.0053073714 	0.029522132
