0 	0.0063489138 	-0.033036479 	1.0492486
2.0100503e-05 	-0.032864333 	-0.0062170836 	1.043159
4.0201005e-05 	-0.032864333 	-0.0062170836 	1.043159
6.0301508e-05 	-0.031867146 	0.0079162211 	1.0372059
8.040201e-05 	-0.031867146 	0.0079162211 	1.0372059
0.00010050251 	-0.031867146 	0.0079162211 	1.0372059
0.00012060302 	-0.030492839 	0.009271939 	1.0313495
0.00014070352 	-0.030492839 	0.009271939 	1.0313495
0.00016080402 	-0.030492839 	0.009271939 	1.0313495
0.00018090452 	-0.02992997 	0.0072084901 	1.0255501
0.00020100503 	-0.02992997 	0.0072084901 	1.0255501
0.00022110553 	-0.02992997 	0.0072084901 	1.0255501
0.00024120603 	-0.029732862 	0.0033974544 	1.0197453
0.00026130653 	-0.029732862 	0.0033974544 	1.0197453
0.00028140704 	-0.029595264 	-0.0014683515 	1.0138406
0.00030150754 	-0.029595264 	-0.0014683515 	1.0138406
0.00032160804 	-0.029595264 	-0.0014683515 	1.0138406
0.00034170854 	-0.029273754 	-0.006891931 	1.0077306
0.00036180905 	-0.029273754 	-0.006891931 	1.0077306
0.00038190955 	-0.029273754 	-0.006891931 	1.0077306
0.00040201005 	-0.028582693 	-0.012421462 	1.0013356
0.00042211055 	-0.028582693 	-0.012421462 	1.0013356
0.00044221106 	-0.028582693 	-0.012421462 	1.0013356
0.00046231156 	-0.027428407 	-0.01762941 	0.99463622
0.00048241206 	-0.027428407 	-0.01762941 	0.99463622
0.00050251256 	-0.02585322 	-0.022131363 	0.98770252
0.00052261307 	-0.02585322 	-0.022131363 	0.98770252
0.00054271357 	-0.02585322 	-0.022131363 	0.98770252
0.00056281407 	-0.024058917 	-0.025651791 	0.9806964
0.00058291457 	-0.024058917 	-0.025651791 	0.9806964
0.00060301508 	-0.024058917 	-0.025651791 	0.9806964
0.00062311558 	-0.025352203 	-0.024616093 	0.97349158
0.00064321608 	-0.025352203 	-0.024616093 	0.97349158
0.00066331658 	-0.022378757 	-0.028099708 	0.97382955
0.00068341709 	-0.02119018 	-0.029609302 	0.96727367
0.00070351759 	-0.02119018 	-0.029609302 	0.96727367
0.00072361809 	-0.020792082 	-0.030497928 	0.96109092
0.00074371859 	-0.020792082 	-0.030497928 	0.96109092
0.0007638191 	-0.020792082 	-0.030497928 	0.96109092
0.0007839196 	-0.021305179 	-0.031171972 	0.95523672
0.0008040201 	-0.021305179 	-0.031171972 	0.95523672
0.0008241206 	-0.021305179 	-0.031171972 	0.95523672
0.00084422111 	-0.022654031 	-0.032017888 	0.94961965
0.00086432161 	-0.022654031 	-0.032017888 	0.94961965
0.00088442211 	-0.022654031 	-0.032017888 	0.94961965
0.00090452261 	-0.024619947 	-0.033286589 	0.9440876
0.00092462312 	-0.024619947 	-0.033286589 	0.9440876
0.00094472362 	-0.03561405 	-0.026791751 	0.94179206
0.00096482412 	-0.03561405 	-0.026791751 	0.94179206
0.00098492462 	-0.03561405 	-0.026791751 	0.94179206
0.0010050251 	-0.029121575 	-0.036685702 	0.93093225
0.0010251256 	-0.029121575 	-0.036685702 	0.93093225
0.0010452261 	-0.029121575 	-0.036685702 	0.93093225
0.0010653266 	-0.030868292 	-0.03728318 	0.92058081
0.0010854271 	-0.030868292 	-0.03728318 	0.92058081
0.0011055276 	-0.030868292 	-0.03728318 	0.92058081
0.0011256281 	-0.032088079 	-0.034734398 	0.90619598
0.0011457286 	-0.032088079 	-0.034734398 	0.90619598
0.0011658291 	-0.046414793 	-0.026539912 	0.91694262
0.0011859296 	-0.048829729 	-0.020796039 	0.90093414
0.0012060302 	-0.032534131 	-0.027328729 	0.88794019
0.0012261307 	-0.032534131 	-0.027328729 	0.88794019
0.0012462312 	-0.031958921 	-0.014063492 	0.86823844
0.0012663317 	-0.031958921 	-0.014063492 	0.86823844
0.0012864322 	-0.031958921 	-0.014063492 	0.86823844
0.0013065327 	-0.03001886 	0.0044979978 	0.85123616
0.0013266332 	-0.03001886 	0.0044979978 	0.85123616
0.0013467337 	-0.03001886 	0.0044979978 	0.85123616
0.0013668342 	-0.026662059 	0.026155905 	0.84049549
0.0013869347 	-0.026662059 	0.026155905 	0.84049549
0.0014070352 	-0.026662059 	0.026155905 	0.84049549
0.0014271357 	-0.022080255 	0.047631572 	0.83707225
0.0014472362 	-0.022080255 	0.047631572 	0.83707225
0.0014673367 	-0.022080255 	0.047631572 	0.83707225
0.0014874372 	-0.016477462 	0.066905457 	0.83957827
0.0015075377 	-0.016477462 	0.066905457 	0.83957827
0.0015276382 	-0.0098888873 	0.083932741 	0.84560593
0.0015477387 	-0.0098888873 	0.083932741 	0.84560593
0.0015678392 	-0.0098888873 	0.083932741 	0.84560593
0.0015879397 	-0.0020105296 	0.099537364 	0.85262658
0.0016080402 	-0.0020105296 	0.099537364 	0.85262658
0.0016281407 	-0.0020105296 	0.099537364 	0.85262658
0.0016482412 	0.0075238368 	0.11388277 	0.85830921
0.0016683417 	0.0075238368 	0.11388277 	0.85830921
0.0016884422 	0.01836545 	0.12588129 	0.86094609
0.0017085427 	0.01836545 	0.12588129 	0.86094609
0.0017286432 	0.01836545 	0.12588129 	0.86094609
0.0017487437 	0.029673931 	0.13416306 	0.86009118
0.0017688442 	0.029673931 	0.13416306 	0.86009118
0.0017889447 	0.029673931 	0.13416306 	0.86009118
0.0018090452 	0.040574263 	0.13796507 	0.85647286
0.0018291457 	0.040574263 	0.13796507 	0.85647286
0.0018492462 	0.050483771 	0.13726286 	0.85138551
0.0018693467 	0.050483771 	0.13726286 	0.85138551
0.0018894472 	0.050483771 	0.13726286 	0.85138551
0.0019095477 	0.05916376 	0.13238772 	0.84616259
0.0019296482 	0.05916376 	0.13238772 	0.84616259
0.0019497487 	0.066549535 	0.123736 	0.8418841
0.0019698492 	0.066549535 	0.123736 	0.8418841
0.0019899497 	0.072605705 	0.11175505 	0.83926624
0.0020100503 	0.072605705 	0.11175505 	0.83926624
0.0020301508 	0.072605705 	0.11175505 	0.83926624
0.0020502513 	0.077270262 	0.097058963 	0.83867975
0.0020703518 	0.077270262 	0.097058963 	0.83867975
0.0020904523 	0.08046983 	0.080469639 	0.84023693
0.0021105528 	0.08046983 	0.080469639 	0.84023693
0.0021306533 	0.08046983 	0.080469639 	0.84023693
0.0021507538 	0.08215786 	0.062965693 	0.84390583
0.0021708543 	0.08215786 	0.062965693 	0.84390583
0.0021909548 	0.082331117 	0.045703761 	0.84956923
0.0022110553 	0.082331117 	0.045703761 	0.84956923
0.0022311558 	0.081010032 	0.030009692 	0.85701652
0.0022512563 	0.081010032 	0.030009692 	0.85701652
0.0022713568 	0.078310023 	0.017103934 	0.86587521
0.0022914573 	0.078310023 	0.017103934 	0.86587521
0.0023115578 	0.078310023 	0.017103934 	0.86587521
0.0023316583 	0.074600023 	0.0075427551 	0.87555767
0.0023517588 	0.074600023 	0.0075427551 	0.87555767
0.0023718593 	0.070373855 	0.00087835511 	0.88535066
0.0023919598 	0.070373855 	0.00087835511 	0.88535066
0.0024120603 	0.066077146 	-0.0039902713 	0.89460228
0.0024321608 	0.066077146 	-0.0039902713 	0.89460228
0.0024522613 	0.061979438 	-0.0080845904 	0.90289998
0.0024723618 	0.061979438 	-0.0080845904 	0.90289998
0.0024924623 	0.058084112 	-0.011948081 	0.91010249
0.0025125628 	0.058084112 	-0.011948081 	0.91010249
0.0025326633 	0.054264618 	-0.01557849 	0.91624588
0.0025527638 	0.054264618 	-0.01557849 	0.91624588
0.0025728643 	0.050397539 	-0.018652594 	0.92142161
0.0025929648 	0.050397539 	-0.018652594 	0.92142161
0.0026130653 	0.04642886 	-0.020830324 	0.92569092
0.0026331658 	0.04642886 	-0.020830324 	0.92569092
0.0026532663 	0.04236948 	-0.021978776 	0.92906717
0.0026733668 	0.04236948 	-0.021978776 	0.92906717
0.0026934673 	0.038246388 	-0.022252603 	0.93155094
0.0027135678 	0.038246388 	-0.022252603 	0.93155094
0.0027336683 	0.03406053 	-0.022032203 	0.93319055
0.0027537688 	0.03406053 	-0.022032203 	0.93319055
0.0027738693 	0.029772759 	-0.021770724 	0.93413897
0.0027939698 	0.029772759 	-0.021770724 	0.93413897
0.0028140704 	0.025320926 	-0.02184254 	0.93468526
0.0028341709 	0.025320926 	-0.02184254 	0.93468526
0.0028542714 	0.020649089 	-0.022464321 	0.93522884
0.0028743719 	0.015743985 	-0.023714868 	0.93620472
0.0028944724 	0.015743985 	-0.023714868 	0.93620472
0.0029145729 	0.010669661 	-0.025599241 	0.93795562
0.0029346734 	0.010669661 	-0.025599241 	0.93795562
0.0029547739 	0.005586533 	-0.028092912 	0.94056245
0.0029748744 	0.005586533 	-0.028092912 	0.94056245
0.0029949749 	0.00073624224 	-0.031168457 	0.94370789
0.0030150754 	-0.0036246053 	-0.034808172 	0.94668369
0.0030351759 	-0.0036246053 	-0.034808172 	0.94668369
0.0030552764 	-0.0072787883 	-0.038846132 	0.9485615
0.0030753769 	-0.0072787883 	-0.038846132 	0.9485615
0.0030954774 	-0.010121933 	-0.042766618 	0.94848206
0.0031155779 	-0.012292785 	-0.045922893 	0.94602523
0.0031356784 	-0.012292785 	-0.045922893 	0.94602523
0.0031557789 	-0.014170384 	-0.048154583 	0.94148688
0.0031758794 	-0.014170384 	-0.048154583 	0.94148688
0.0031959799 	-0.0162201 	-0.050159132 	0.93577149
0.0032160804 	-0.018746967 	-0.053143525 	0.92979109
0.0032361809 	-0.018746967 	-0.053143525 	0.92979109
0.0032562814 	-0.021678465 	-0.057969852 	0.92373829
0.0032763819 	-0.024561441 	-0.064371659 	0.91693091
0.0032964824 	-0.024561441 	-0.064371659 	0.91693091
0.0033165829 	-0.026804357 	-0.07091845 	0.90847163
0.0033366834 	-0.02804833 	-0.075956564 	0.89799321
0.0033567839 	-0.02804833 	-0.075956564 	0.89799321
0.0033768844 	-0.028319065 	-0.078845115 	0.88565781
0.0033969849 	-0.02801484 	-0.080394206 	0.871651
0.0034170854 	-0.02801484 	-0.080394206 	0.871651
0.0034371859 	-0.027785987 	-0.082113628 	0.85605861
0.0034572864 	-0.028313382 	-0.084920973 	0.83921274
0.0034773869 	-0.03008333 	-0.088362359 	0.82167791
0.0034974874 	-0.03008333 	-0.088362359 	0.82167791
0.0035175879 	-0.033129192 	-0.090899645 	0.80352346
0.0035376884 	-0.03691179 	-0.090900434 	0.78370981
0.0035577889 	-0.040530761 	-0.087537617 	0.76057432
0.0035778894 	-0.040530761 	-0.087537617 	0.76057432
0.0035979899 	-0.043136505 	-0.081060905 	0.73318306
0.0036180905 	-0.0442239 	-0.072420999 	0.70224315
0.003638191 	-0.043648418 	-0.062665298 	0.66968863
0.0036582915 	-0.043648418 	-0.062665298 	0.66968863
0.003678392 	-0.041492783 	-0.052769328 	0.63749059
0.0036984925 	-0.037932264 	-0.043833183 	0.60677359
0.003718593 	-0.033194882 	-0.03700606 	0.57784425
0.0037386935 	-0.027639738 	-0.032993577 	0.55056715
0.003758794 	-0.021833774 	-0.031753878 	0.52446716
0.0037788945 	-0.021833774 	-0.031753878 	0.52446716
0.003798995 	-0.01635117 	-0.032554761 	0.49857333
0.0038190955 	-0.011619852 	-0.03426513 	0.47133687
0.003839196 	-0.0078775862 	-0.035750888 	0.44083887
0.0038592965 	-0.0051188458 	-0.036124171 	0.40514123
0.003879397 	-0.0031985769 	-0.03489337 	0.36262476
0.0038994975 	-0.0019230537 	-0.032030754 	0.31233848
0.003919598 	-0.0010822408 	-0.027861353 	0.25417449
0.0039396985 	-0.00050046013 	-0.022762657 	0.18889228
0.003959799 	-7.6660138e-05 	-0.016605286 	0.11776309
0.0039798995 	7.860018e-05 	-0.0078290691 	0.041567645
0.004 	7.860018e-05 	-0.0078290691 	0.041567645
