0 	-0.022924877 	0.035400837 	1.0360962
5.5555625e-05 	-0.03835711 	0.019343342 	1.0337893
0.00011111111 	-0.041369427 	0.011953028 	1.0314618
0.00016666667 	-0.041636199 	0.0070711635 	1.0290008
0.00022222222 	-0.040201735 	0.0034417054 	1.0263968
0.00027777778 	-0.037432909 	0.00085674991 	1.0236754
0.00033333333 	-0.033674088 	-0.0007425492 	1.0208276
0.00038888889 	-0.029273591 	-0.001497957 	1.0177704
0.00044444444 	-0.024542291 	-0.001647027 	1.0143411
0.0005 	-0.019726986 	-0.0014743673 	1.0103186
0.00055555556 	-0.014998002 	-0.0012831814 	1.0054714
0.00061111111 	-0.010472801 	-0.0013524303 	0.99964766
0.00066666667 	-0.0062313757 	-0.0019604289 	0.99287632
0.00072222222 	-0.002379058 	-0.0034207936 	0.98552915
0.00077777778 	0.00074252208 	-0.0061492321 	0.97849358
0.00083333333 	0.0025762004 	-0.010269767 	0.97297187
0.00088888889 	0.0027740765 	-0.015248519 	0.96963665
0.00094444444 	0.001456142 	-0.020304181 	0.96805886
0.001 	-0.0012510457 	-0.024995342 	0.9668827
0.0010617224 	-0.0044974642 	-0.029527205 	0.9647724
0.0011225923 	-0.0072803335 	-0.034114894 	0.96136511
0.0011826215 	-0.0090901343 	-0.038477903 	0.95722282
0.0012418217 	-0.0098956703 	-0.041556149 	0.95337433
0.0013002041 	-0.0099327716 	-0.042303342 	0.95080551
0.0013577803 	-0.0094799845 	-0.040373091 	0.95021104
0.0014145612 	-0.0087730875 	-0.036135337 	0.95181515
0.0014705579 	-0.0079823507 	-0.030359965 	0.95533716
0.0015257812 	-0.0072072648 	-0.023834599 	0.96020221
0.0015802418 	-0.0064935983 	-0.017135936 	0.96582424
0.0016339502 	-0.0058499693 	-0.010585045 	0.97177605
0.0016869168 	-0.0052339712 	-0.0043312757 	0.97781119
0.0017391518 	-0.0045929385 	0.001572403 	0.98381644
0.0017906654 	-0.0038411201 	0.0071089082 	0.98973185
0.0018414676 	-0.0028594515 	0.012253072 	0.99550834
0.0018915681 	-0.0015539291 	0.016949993 	1.0010807
0.0019409766 	0.00013158196 	0.021121252 	1.0063728
0.0019897027 	0.0021966875 	0.024675069 	1.0113144
0.0020377558 	0.004586766 	0.027534069 	1.0158521
0.0020851453 	0.00721425 	0.029683027 	1.0199444
0.0021318802 	0.009992498 	0.031210429 	1.0235304
0.0021779697 	0.012840825 	0.032309491 	1.0265186
0.0022234225 	0.015692064 	0.033254168 	1.0287791
0.0022682477 	0.018509896 	0.034333182 	1.0301884
0.0023124537 	0.021256433 	0.035761362 	1.0306821
0.0023560491 	0.023890487 	0.037597123 	1.0302856
0.0023990425 	0.026372251 	0.039692196 	1.0290744
0.002441442 	0.028654585 	0.041690836 	1.0270848
0.002483256 	0.030680982 	0.043116719 	1.0242245
0.0025244924 	0.032397514 	0.043573952 	1.0202422
0.0025651593 	0.033806017 	0.043022247 	1.0147338
0.0026052645 	0.035026006 	0.041981645 	1.0071284
0.0026448158 	0.036291973 	0.041500942 	0.99666022
0.0026838209 	0.037856143 	0.042823168 	0.98248605
0.0027222872 	0.039867215 	0.046865047 	0.96406803
0.0027602223 	0.042313968 	0.053778068 	0.94161536
0.0027976334 	0.045053976 	0.0628356 	0.91618799
0.0028345278 	0.047866396 	0.072674057 	0.88936825
0.0028709126 	0.050497932 	0.081728363 	0.86280069
0.002906795 	0.052709557 	0.088645214 	0.83786723
0.0029421817 	0.05431562 	0.092521422 	0.81554677
0.0029770797 	0.055195949 	0.092943396 	0.79640357
0.0030114957 	0.055282084 	0.089898967 	0.78065134
0.0030454363 	0.054535487 	0.083657865 	0.76824803
0.0030789082 	0.052936739 	0.07467436 	0.75897814
0.0031119178 	0.050497358 	0.063524583 	0.75248949
0.0031444715 	0.047284784 	0.050854277 	0.74828721
0.0031765755 	0.043446278 	0.03731884 	0.74572567
0.0032082362 	0.039202852 	0.023501165 	0.74404648
0.0032394596 	0.034833071 	0.0098189657 	0.74245179
0.0032702517 	0.030606054 	-0.003564616 	0.74025796
0.0033006186 	0.026615511 	-0.016741306 	0.73717226
0.003330566 	0.022912773 	-0.029955969 	0.73352328
0.0033600998 	0.01959457 	-0.043473159 	0.73017153
0.0033892257 	0.01669557 	-0.057279701 	0.7279671
0.0034179494 	0.014253948 	-0.070888392 	0.72699055
0.0034462763 	0.012332 	-0.083414335 	0.72620683
0.003474212 	0.011002248 	-0.093867189 	0.72392602
0.0035017619 	0.010312549 	-0.10145195 	0.71877381
0.0035289312 	0.010246249 	-0.10570177 	0.71047314
0.0035557253 	0.010700421 	-0.10639837 	0.69994567
0.0035821494 	0.011498756 	-0.10338784 	0.68873436
0.0036082084 	0.012418127 	-0.096526846 	0.67810096
0.0036339076 	0.013198923 	-0.08591042 	0.66822208
0.0036592518 	0.013555004 	-0.072287976 	0.65772088
0.003684246 	0.013248367 	-0.057338263 	0.64358279
0.003708895 	0.012251842 	-0.043386299 	0.62157318
0.0037332035 	0.010857885 	-0.032390196 	0.58757103
0.0037571763 	0.0095200074 	-0.024843268 	0.53989867
0.003780818 	0.0085025056 	-0.019745296 	0.48111455
0.0038041332 	0.0077219371 	-0.015751491 	0.41707576
0.0038271264 	0.0069235613 	-0.012202307 	0.35373856
0.0038498019 	0.0059444053 	-0.0091657992 	0.29461735
0.0038721643 	0.0047784067 	-0.0068975216 	0.24049389
0.0038942179 	0.0035069466 	-0.0054010265 	0.19057116
0.0039159668 	0.0022537522 	-0.0043809135 	0.14375316
0.0039374154 	0.0011585919 	-0.0034165384 	0.099367696
0.0039585677 	0.00036257155 	-0.0021797457 	0.057366107
0.0039794279 	5.427471e-06 	-0.00064561382 	0.018160979
0.004 	-9.4858482e-06 	-0.001618279 	0.020022587
