0 	0.00031954933 	0.05051042 	1.0131852
5.5555556e-05 	0.049210207 	-0.02217905 	1.0143238
0.00011111111 	0.047341094 	-0.028067043 	1.0158878
0.00016666667 	0.046201356 	-0.030492152 	1.0180896
0.00022222222 	0.044845902 	-0.031479698 	1.0206931
0.00027777778 	0.042918109 	-0.031567355 	1.0233827
0.00033333333 	0.040281035 	-0.031000194 	1.0258302
0.00038888889 	0.036943456 	-0.030030925 	1.027709
0.00044444444 	0.033032548 	-0.028972436 	1.028674
0.0005 	0.028782152 	-0.02814468 	1.0283801
0.00055555556 	0.024485179 	-0.027719358 	1.0266413
0.00061111111 	0.020383878 	-0.027647514 	1.0236704
0.00066666667 	0.01661712 	-0.027638538 	1.0203155
0.00072222222 	0.013313507 	-0.02711892 	1.0180185
0.00077777778 	0.010768579 	-0.025507943 	1.0181011
0.00083333333 	0.0094718441 	-0.022868915 	1.0205021
0.00088888889 	0.0098155182 	-0.020312146 	1.0230408
0.00094444444 	0.011919264 	-0.01937237 	1.0222005
0.001 	0.015468238 	-0.021220239 	1.0146031
0.0010617224 	0.019739187 	-0.026034869 	0.99746803
0.0011225923 	0.02290278 	-0.031754283 	0.97367824
0.0011826215 	0.023421986 	-0.035587503 	0.94822182
0.0012418217 	0.020539952 	-0.034840004 	0.92616731
0.0013002041 	0.014671781 	-0.028449819 	0.91035541
0.0013577803 	0.0071583726 	-0.017839042 	0.90049593
0.0014145612 	-0.00045378602 	-0.0058315009 	0.8942682
0.0014705579 	-0.0071044579 	0.0052414131 	0.8892875
0.0015257812 	-0.012420555 	0.014418727 	0.88405597
0.0015802418 	-0.016450188 	0.021895588 	0.87795526
0.0016339502 	-0.019311291 	0.028325293 	0.87091045
0.0016869168 	-0.021039015 	0.034230704 	0.86333534
0.0017391518 	-0.021549565 	0.03976196 	0.85582657
0.0017906654 	-0.020731682 	0.04470533 	0.84883548
0.0018414676 	-0.01853185 	0.048652073 	0.84253538
0.0018915681 	-0.01503669 	0.051218462 	0.83691405
0.0019409766 	-0.010496781 	0.052168422 	0.8319357
0.0019897027 	-0.0052751989 	0.051486098 	0.82762946
0.0020377558 	0.0002165953 	0.049356313 	0.82409686
0.0020851453 	0.0055437897 	0.046118888 	0.82146564
0.0021318802 	0.010292216 	0.042217972 	0.81984352
0.0021779697 	0.014143863 	0.038121764 	0.81933417
0.0022234225 	0.016884142 	0.034242875 	0.82002576
0.0022682477 	0.018414223 	0.030876642 	0.82200456
0.0023124537 	0.018851129 	0.028134369 	0.82535727
0.0023560491 	0.018448827 	0.025963202 	0.83012264
0.0023990425 	0.017460359 	0.024097639 	0.83620446
0.002441442 	0.016072861 	0.022092652 	0.84332002
0.002483256 	0.014420287 	0.019476661 	0.85103029
0.0025244924 	0.012624768 	0.015925531 	0.85880458
0.0025651593 	0.0107505 	0.011377886 	0.8661585
0.0026052645 	0.0087610142 	0.0059833324 	0.87271746
0.0026448158 	0.0066970431 	-1.8898671e-05 	0.87830661
0.0026838209 	0.0046077643 	-0.006452244 	0.88293322
0.0027222872 	0.0025177203 	-0.013224118 	0.8867007
0.0027602223 	0.00057745389 	-0.020324658 	0.88968657
0.0027976334 	-0.0010078842 	-0.027750628 	0.89187545
0.0028345278 	-0.002014027 	-0.035488456 	0.89311273
0.0028709126 	-0.0021857794 	-0.043516255 	0.89311486
0.002906795 	-0.0013342757 	-0.051814004 	0.8914926
0.0029421817 	0.00061606404 	-0.060346336 	0.88780992
0.0029770797 	0.0035908615 	-0.069023684 	0.8816637
0.0030114957 	0.0073564309 	-0.077686487 	0.87275873
0.0030454363 	0.011584871 	-0.086099775 	0.86095563
0.0030789082 	0.01588008 	-0.093962245 	0.84628295
0.0031119178 	0.01982863 	-0.10094441 	0.82894236
0.0031444715 	0.023013655 	-0.10670208 	0.80934522
0.0031765755 	0.025019268 	-0.11089221 	0.78818874
0.0032082362 	0.025448146 	-0.11315405 	0.76654347
0.0032394596 	0.023932411 	-0.11305951 	0.74585506
0.0032702517 	0.020227812 	-0.1100776 	0.72776822
0.0033006186 	0.014335207 	-0.10367646 	0.71373058
0.003330566 	0.0066039868 	-0.093647593 	0.70444236
0.0033600998 	-0.002270133 	-0.080499046 	0.69939491
0.0033892257 	-0.0113785 	-0.065529346 	0.69686951
0.0034179494 	-0.019819204 	-0.050346511 	0.69457574
0.0034462763 	-0.02691514 	-0.036140816 	0.69055069
0.003474212 	-0.032297692 	-0.023328428 	0.6837083
0.0035017619 	-0.035826456 	-0.011793207 	0.67378608
0.0035289312 	-0.037516695 	-0.0013592923 	0.66085133
0.0035557253 	-0.037566178 	0.0078957364 	0.64504792
0.0035821494 	-0.036224886 	0.015629863 	0.62658204
0.0036082084 	-0.033694927 	0.02143848 	0.60573281
0.0036339076 	-0.030274205 	0.02503607 	0.58290614
0.0036592518 	-0.026356693 	0.026383107 	0.55857838
0.003684246 	-0.022326013 	0.025705746 	0.53316368
0.003708895 	-0.018498336 	0.023431415 	0.50683584
0.0037332035 	-0.015090759 	0.020094543 	0.47942026
0.0037571763 	-0.01221033 	0.016247991 	0.45041469
0.003780818 	-0.0098658304 	0.012393072 	0.41914132
0.0038041332 	-0.0079949225 	0.0089245548 	0.38496691
0.0038271264 	-0.0064953313 	0.0060888034 	0.3475107
0.0038498019 	-0.0052509925 	0.0039613624 	0.30677126
0.0038721643 	-0.0041602954 	0.0024567675 	0.26313472
0.0038942179 	-0.0031519777 	0.0013773108 	0.2172734
0.0039159668 	-0.0021912338 	0.00049811779 	0.16997586
0.0039374154 	-0.0012938412 	-0.00031951846 	0.12195096
0.0039585677 	-0.00053818619 	-0.00098202769 	0.073627278
0.0039794279 	-5.8966135e-05 	-0.00096237113 	0.024959217
0.004 	-5.8966135e-05 	-0.00096237113 	0.024959217
