0 	0.0063579301 	-0.0044070439 	1.059073
2.0100503e-05 	0.011755857 	0.007938934 	1.0560105
4.0201005e-05 	0.011755857 	0.007938934 	1.0560105
6.0301508e-05 	0.01354548 	0.018457869 	1.0520243
8.040201e-05 	0.01354548 	0.018457869 	1.0520243
0.00010050251 	0.01354548 	0.018457869 	1.0520243
0.00012060302 	0.01689384 	0.028178294 	1.0479973
0.00014070352 	0.01689384 	0.028178294 	1.0479973
0.00016080402 	0.01689384 	0.028178294 	1.0479973
0.00018090452 	0.019990765 	0.038270499 	1.0448142
0.00020100503 	0.019990765 	0.038270499 	1.0448142
0.00022110553 	0.019990765 	0.038270499 	1.0448142
0.00024120603 	0.022269631 	0.048116532 	1.0429435
0.00026130653 	0.022269631 	0.048116532 	1.0429435
0.00028140704 	0.023634024 	0.057072897 	1.0423713
0.00030150754 	0.023634024 	0.057072897 	1.0423713
0.00032160804 	0.023634024 	0.057072897 	1.0423713
0.00034170854 	0.024252097 	0.064750199 	1.0426862
0.00036180905 	0.024252097 	0.064750199 	1.0426862
0.00038190955 	0.024252097 	0.064750199 	1.0426862
0.00040201005 	0.02439032 	0.070950676 	1.0431217
0.00042211055 	0.02439032 	0.070950676 	1.0431217
0.00044221106 	0.02439032 	0.070950676 	1.0431217
0.00046231156 	0.024246905 	0.075439303 	1.0426294
0.00048241206 	0.024246905 	0.075439303 	1.0426294
0.00050251256 	0.023866455 	0.077729815 	1.0401147
0.00052261307 	0.023866455 	0.077729815 	1.0401147
0.00054271357 	0.023866455 	0.077729815 	1.0401147
0.00056281407 	0.023155097 	0.077070711 	1.0348573
0.00058291457 	0.023155097 	0.077070711 	1.0348573
0.00060301508 	0.023155097 	0.077070711 	1.0348573
0.00062311558 	0.021991546 	0.072765089 	1.0268876
0.00064321608 	0.021991546 	0.072765089 	1.0268876
0.00066331658 	0.021991546 	0.072765089 	1.0268876
0.00068341709 	0.020376399 	0.064727297 	1.0170179
0.00070351759 	0.020376399 	0.064727297 	1.0170179
0.00072361809 	0.018528514 	0.053850478 	1.0064506
0.00074371859 	0.018528514 	0.053850478 	1.0064506
0.0007638191 	0.018528514 	0.053850478 	1.0064506
0.0007839196 	0.016900703 	0.041794645 	0.99628706
0.0008040201 	0.016900703 	0.041794645 	0.99628706
0.0008241206 	0.016900703 	0.041794645 	0.99628706
0.00084422111 	0.016065582 	0.03031412 	0.98730433
0.00086432161 	0.016065582 	0.03031412 	0.98730433
0.00088442211 	0.016065582 	0.03031412 	0.98730433
0.00090452261 	0.016606524 	0.020603153 	0.97997986
0.00092462312 	0.016606524 	0.020603153 	0.97997986
0.00094472362 	0.018772901 	0.013246627 	0.9745088
0.00096482412 	0.018772901 	0.013246627 	0.9745088
0.00098492462 	0.018772901 	0.013246627 	0.9745088
0.0010050251 	0.020372067 	0.010732274 	0.96051514
0.0010251256 	0.020372067 	0.010732274 	0.96051514
0.0010452261 	0.020372067 	0.010732274 	0.96051514
0.0010653266 	0.025497429 	0.0079975675 	0.9592631
0.0010854271 	0.025497429 	0.0079975675 	0.9592631
0.0011055276 	0.025497429 	0.0079975675 	0.9592631
0.0011256281 	0.030527352 	0.0069592901 	0.9583803
0.0011457286 	0.030527352 	0.0069592901 	0.9583803
0.0011658291 	0.030527352 	0.0069592901 	0.9583803
0.0011859296 	0.034835851 	0.0074143436 	0.95688604
0.0012060302 	0.034835851 	0.0074143436 	0.95688604
0.0012261307 	0.034835851 	0.0074143436 	0.95688604
0.0012462312 	0.038140878 	0.0093472065 	0.95456317
0.0012663317 	0.038140878 	0.0093472065 	0.95456317
0.0012864322 	0.038140878 	0.0093472065 	0.95456317
0.0013065327 	0.040600347 	0.012717831 	0.95140394
0.0013266332 	0.040600347 	0.012717831 	0.95140394
0.0013467337 	0.040600347 	0.012717831 	0.95140394
0.0013668342 	0.046121365 	0.015153059 	0.95759929
0.0013869347 	0.042491104 	0.017335627 	0.947283
0.0014070352 	0.042491104 	0.017335627 	0.947283
0.0014271357 	0.044058323 	0.022899667 	0.94205672
0.0014472362 	0.044058323 	0.022899667 	0.94205672
0.0014673367 	0.044058323 	0.022899667 	0.94205672
0.0014874372 	0.045386699 	0.028999692 	0.93570222
0.0015075377 	0.045386699 	0.028999692 	0.93570222
0.0015276382 	0.046392333 	0.035186185 	0.92834827
0.0015477387 	0.046392333 	0.035186185 	0.92834827
0.0015678392 	0.046392333 	0.035186185 	0.92834827
0.0015879397 	0.047015483 	0.041050638 	0.92021917
0.0016080402 	0.047015483 	0.041050638 	0.92021917
0.0016281407 	0.047015483 	0.041050638 	0.92021917
0.0016482412 	0.047241758 	0.04633067 	0.91149078
0.0016683417 	0.047241758 	0.04633067 	0.91149078
0.0016884422 	0.047025769 	0.050933587 	0.90227236
0.0017085427 	0.047025769 	0.050933587 	0.90227236
0.0017286432 	0.047025769 	0.050933587 	0.90227236
0.0017487437 	0.046305385 	0.054893977 	0.89277022
0.0017688442 	0.046305385 	0.054893977 	0.89277022
0.0017889447 	0.046305385 	0.054893977 	0.89277022
0.0018090452 	0.044882247 	0.058251548 	0.8835279
0.0018291457 	0.044882247 	0.058251548 	0.8835279
0.0018492462 	0.042476825 	0.06097294 	0.87549481
0.0018693467 	0.042476825 	0.06097294 	0.87549481
0.0018894472 	0.042476825 	0.06097294 	0.87549481
0.0019095477 	0.038870843 	0.062947434 	0.86977083
0.0019296482 	0.038870843 	0.062947434 	0.86977083
0.0019497487 	0.034019319 	0.064045697 	0.86704255
0.0019698492 	0.034019319 	0.064045697 	0.86704255
0.0019899497 	0.034019319 	0.064045697 	0.86704255
0.0020100503 	0.028241877 	0.064035186 	0.86710648
0.0020301508 	0.028241877 	0.064035186 	0.86710648
0.0020502513 	0.022113686 	0.062396376 	0.86873374
0.0020703518 	0.022113686 	0.062396376 	0.86873374
0.0020904523 	0.016153609 	0.058514028 	0.87023941
0.0021105528 	0.016153609 	0.058514028 	0.87023941
0.0021306533 	0.016153609 	0.058514028 	0.87023941
0.0021507538 	0.010434722 	0.052174841 	0.87030792
0.0021708543 	0.010434722 	0.052174841 	0.87030792
0.0021909548 	0.0046254149 	0.043578765 	0.86859992
0.0022110553 	0.0046254149 	0.043578765 	0.86859992
0.0022311558 	-0.0018115582 	0.032835095 	0.86584494
0.0022512563 	-0.0018115582 	0.032835095 	0.86584494
0.0022713568 	-0.0095055739 	0.019744275 	0.86313521
0.0022914573 	-0.0095055739 	0.019744275 	0.86313521
0.0023115578 	-0.0095055739 	0.019744275 	0.86313521
0.0023316583 	-0.01916476 	0.004292692 	0.86087428
0.0023517588 	-0.01916476 	0.004292692 	0.86087428
0.0023718593 	-0.030706832 	-0.013067923 	0.85821786
0.0023919598 	-0.030706832 	-0.013067923 	0.85821786
0.0024120603 	-0.042788517 	-0.031479583 	0.85371679
0.0024321608 	-0.042788517 	-0.031479583 	0.85371679
0.0024522613 	-0.053905827 	-0.049782534 	0.8461693
0.0024723618 	-0.053905827 	-0.049782534 	0.8461693
0.0024924623 	-0.062947318 	-0.066535419 	0.83495342
0.0025125628 	-0.062947318 	-0.066535419 	0.83495342
0.0025326633 	-0.069252716 	-0.080265376 	0.81994215
0.0025527638 	-0.069252716 	-0.080265376 	0.81994215
0.0025728643 	-0.072600542 	-0.0897809 	0.80145184
0.0025929648 	-0.072600542 	-0.0897809 	0.80145184
0.0026130653 	-0.073129213 	-0.094389951 	0.78038425
0.0026331658 	-0.073129213 	-0.094389951 	0.78038425
0.0026532663 	-0.071257029 	-0.093969965 	0.75837365
0.0026733668 	-0.071257029 	-0.093969965 	0.75837365
0.0026934673 	-0.067592419 	-0.088952369 	0.73759464
0.0027135678 	-0.067592419 	-0.088952369 	0.73759464
0.0027336683 	-0.062863668 	-0.080252178 	0.72018438
0.0027537688 	-0.062863668 	-0.080252178 	0.72018438
0.0027738693 	-0.057836516 	-0.069156179 	0.70755188
0.0027939698 	-0.057836516 	-0.069156179 	0.70755188
0.0028140704 	-0.053201652 	-0.057091902 	0.69994298
0.0028341709 	-0.053201652 	-0.057091902 	0.69994298
0.0028542714 	-0.049485806 	-0.045301544 	0.69646177
0.0028743719 	-0.047000338 	-0.034591491 	0.69546789
0.0028944724 	-0.047000338 	-0.034591491 	0.69546789
0.0029145729 	-0.045831234 	-0.025271007 	0.69512666
0.0029346734 	-0.045831234 	-0.025271007 	0.69512666
0.0029547739 	-0.045855157 	-0.017236871 	0.69396012
0.0029748744 	-0.045855157 	-0.017236871 	0.69396012
0.0029949749 	-0.046731076 	-0.010095572 	0.69128382
0.0030150754 	-0.047963476 	-0.0032872745 	0.68732787
0.0030351759 	-0.047963476 	-0.0032872745 	0.68732787
0.0030552764 	-0.049007598 	0.0037675845 	0.6829069
0.0030753769 	-0.049007598 	0.0037675845 	0.6829069
0.0030954774 	-0.049535722 	0.011506302 	0.6788324
0.0031155779 	-0.049380283 	0.020076524 	0.67543577
0.0031356784 	-0.049380283 	0.020076524 	0.67543577
0.0031557789 	-0.048428013 	0.029409297 	0.67251191
0.0031758794 	-0.048428013 	0.029409297 	0.67251191
0.0031959799 	-0.04669542 	0.039266881 	0.66952473
0.0032160804 	-0.044246615 	0.049290276 	0.66589582
0.0032361809 	-0.044246615 	0.049290276 	0.66589582
0.0032562814 	-0.041159115 	0.059031999 	0.66119181
0.0032763819 	-0.037520956 	0.067966537 	0.65520137
0.0032964824 	-0.037520956 	0.067966537 	0.65520137
0.0033165829 	-0.033439386 	0.075515182 	0.64796742
0.0033366834 	-0.029061171 	0.081095777 	0.63980195
0.0033567839 	-0.029061171 	0.081095777 	0.63980195
0.0033768844 	-0.024556725 	0.084205029 	0.63124698
0.0033969849 	-0.020125978 	0.084527049 	0.62291362
0.0034170854 	-0.020125978 	0.084527049 	0.62291362
0.0034371859 	-0.015998963 	0.082025273 	0.61521176
0.0034572864 	-0.012378881 	0.076984069 	0.60806638
0.0034773869 	-0.0094093252 	0.069949406 	0.60079411
0.0034974874 	-0.0094093252 	0.069949406 	0.60079411
0.0035175879 	-0.0071477516 	0.061570541 	0.59228508
0.0035376884 	-0.0055531905 	0.052422184 	0.58140445
0.0035577889 	-0.0045136348 	0.042901912 	0.56740615
0.0035778894 	-0.0045136348 	0.042901912 	0.56740615
0.0035979899 	-0.0038923007 	0.033248176 	0.55016911
0.0036180905 	-0.0035674262 	0.023654042 	0.53011562
0.003638191 	-0.0034412395 	0.014376708 	0.50788142
0.0036582915 	-0.0034412395 	0.014376708 	0.50788142
0.003678392 	-0.0034276681 	0.0057831967 	0.48394632
0.0036984925 	-0.0034214678 	-0.0017225528 	0.45847789
0.003718593 	-0.003334558 	-0.0078258651 	0.43141392
0.0037386935 	-0.003132355 	-0.012405554 	0.40266557
0.003758794 	-0.0028226526 	-0.015543546 	0.37229743
0.0037788945 	-0.0028226526 	-0.015543546 	0.37229743
0.003798995 	-0.0024460574 	-0.01746066 	0.34054671
0.0038190955 	-0.0020570802 	-0.018417689 	0.30771752
0.003839196 	-0.0017005725 	-0.01863009 	0.27404725
0.0038592965 	-0.0013971473 	-0.018222909 	0.23963429
0.003879397 	-0.00114158 	-0.017228027 	0.20446101
0.0038994975 	-0.00091177378 	-0.015611738 	0.16848496
0.003919598 	-0.00068327622 	-0.01331785 	0.13174004
0.0039396985 	-0.00044451413 	-0.010313785 	0.094392056
0.003959799 	-0.00021260516 	-0.0066284002 	0.056716746
0.0039798995 	-3.3219581e-05 	-0.0023644903 	0.018986357
0.004 	-3.3219581e-05 	-0.0023644903 	0.018986357
