0 	-0.03506224 	-0.0015340802 	1.0241357
2.0100503e-05 	-0.001467149 	-0.033064986 	1.0251915
4.0201005e-05 	-0.001467149 	-0.033064986 	1.0251915
6.0301508e-05 	0.0096229229 	-0.030492562 	1.0270579
8.040201e-05 	0.0096229229 	-0.030492562 	1.0270579
0.00010050251 	0.0096229229 	-0.030492562 	1.0270579
0.00012060302 	0.0096058148 	-0.030307841 	1.0300067
0.00014070352 	0.0096058148 	-0.030307841 	1.0300067
0.00016080402 	0.0096058148 	-0.030307841 	1.0300067
0.00018090452 	0.0079927961 	-0.031362205 	1.0341607
0.00020100503 	0.0079927961 	-0.031362205 	1.0341607
0.00022110553 	0.0079927961 	-0.031362205 	1.0341607
0.00024120603 	0.0063638668 	-0.032831189 	1.0393457
0.00026130653 	0.0063638668 	-0.032831189 	1.0393457
0.00028140704 	0.0052583823 	-0.034620802 	1.0449562
0.00030150754 	0.0052583823 	-0.034620802 	1.0449562
0.00032160804 	0.0052583823 	-0.034620802 	1.0449562
0.00034170854 	0.004954407 	-0.037000196 	1.0499297
0.00036180905 	0.004954407 	-0.037000196 	1.0499297
0.00038190955 	0.004954407 	-0.037000196 	1.0499297
0.00040201005 	0.0056497945 	-0.040073959 	1.052917
0.00042211055 	0.0056497945 	-0.040073959 	1.052917
0.00044221106 	0.0056497945 	-0.040073959 	1.052917
0.00046231156 	0.0074823663 	-0.04299354 	1.0526477
0.00048241206 	0.0074823663 	-0.04299354 	1.0526477
0.00050251256 	0.0103626 	-0.043279249 	1.0484509
0.00052261307 	0.0103626 	-0.043279249 	1.0484509
0.00054271357 	0.0103626 	-0.043279249 	1.0484509
0.00056281407 	0.013748593 	-0.037004348 	1.040816
0.00058291457 	0.013748593 	-0.037004348 	1.040816
0.00060301508 	0.013748593 	-0.037004348 	1.040816
0.00062311558 	0.016494163 	-0.020817841 	1.0317578
0.00064321608 	0.016494163 	-0.020817841 	1.0317578
0.00066331658 	0.016494163 	-0.020817841 	1.0317578
0.00068341709 	0.017088865 	0.0045687801 	1.0241765
0.00070351759 	0.017088865 	0.0045687801 	1.0241765
0.00072361809 	0.014569245 	0.033607842 	1.0180373
0.00074371859 	0.014569245 	0.033607842 	1.0180373
0.0007638191 	0.014569245 	0.033607842 	1.0180373
0.0007839196 	0.0090118258 	0.05914782 	1.0069107
0.0008040201 	0.0090118258 	0.05914782 	1.0069107
0.0008241206 	0.0090118258 	0.05914782 	1.0069107
0.00084422111 	0.00067477076 	0.075171795 	0.98549019
0.00086432161 	0.00067477076 	0.075171795 	0.98549019
0.00088442211 	0.00067477076 	0.075171795 	0.98549019
0.00090452261 	-0.0099008337 	0.079706657 	0.9590594
0.00092462312 	-0.0099008337 	0.079706657 	0.9590594
0.00094472362 	-0.02138898 	0.076067599 	0.93582232
0.00096482412 	-0.02138898 	0.076067599 	0.93582232
0.00098492462 	-0.02138898 	0.076067599 	0.93582232
0.0010050251 	-0.038050948 	0.060809963 	0.91453607
0.0010251256 	-0.038050948 	0.060809963 	0.91453607
0.0010452261 	-0.038050948 	0.060809963 	0.91453607
0.0010653266 	-0.049177175 	0.051340284 	0.89964331
0.0010854271 	-0.043724174 	0.059474008 	0.89946931
0.0011055276 	-0.043724174 	0.059474008 	0.89946931
0.0011256281 	-0.051664537 	0.048647784 	0.88482154
0.0011457286 	-0.051664537 	0.048647784 	0.88482154
0.0011658291 	-0.051664537 	0.048647784 	0.88482154
0.0011859296 	-0.061133276 	0.0328596 	0.88011404
0.0012060302 	-0.061133276 	0.0328596 	0.88011404
0.0012261307 	-0.061133276 	0.0328596 	0.88011404
0.0012462312 	-0.06066707 	0.026520621 	0.87772142
0.0012663317 	-0.06066707 	0.026520621 	0.87772142
0.0012864322 	-0.06066707 	0.026520621 	0.87772142
0.0013065327 	-0.056182843 	0.024356219 	0.88064294
0.0013266332 	-0.056182843 	0.024356219 	0.88064294
0.0013467337 	-0.056182843 	0.024356219 	0.88064294
0.0013668342 	-0.048464226 	0.025993632 	0.88729164
0.0013869347 	-0.048464226 	0.025993632 	0.88729164
0.0014070352 	-0.048464226 	0.025993632 	0.88729164
0.0014271357 	-0.038435726 	0.029716934 	0.89566463
0.0014472362 	-0.038435726 	0.029716934 	0.89566463
0.0014673367 	-0.038435726 	0.029716934 	0.89566463
0.0014874372 	-0.026934135 	0.033631597 	0.90414243
0.0015075377 	-0.026934135 	0.033631597 	0.90414243
0.0015276382 	-0.014667487 	0.036492692 	0.91163152
0.0015477387 	-0.014667487 	0.036492692 	0.91163152
0.0015678392 	-0.014667487 	0.036492692 	0.91163152
0.0015879397 	-0.002158243 	0.037834679 	0.91743449
0.0016080402 	-0.002158243 	0.037834679 	0.91743449
0.0016281407 	-0.002158243 	0.037834679 	0.91743449
0.0016482412 	0.010174998 	0.037740741 	0.92135188
0.0016683417 	0.010174998 	0.037740741 	0.92135188
0.0016884422 	0.021945039 	0.036507235 	0.92360415
0.0017085427 	0.021945039 	0.036507235 	0.92360415
0.0017286432 	0.021945039 	0.036507235 	0.92360415
0.0017487437 	0.032846705 	0.03446164 	0.92461882
0.0017688442 	0.032846705 	0.03446164 	0.92461882
0.0017889447 	0.032846705 	0.03446164 	0.92461882
0.0018090452 	0.042607637 	0.031906879 	0.92486218
0.0018291457 	0.042607637 	0.031906879 	0.92486218
0.0018492462 	0.051068773 	0.029172181 	0.92472264
0.0018693467 	0.051068773 	0.029172181 	0.92472264
0.0018894472 	0.051068773 	0.029172181 	0.92472264
0.0019095477 	0.058233582 	0.026484919 	0.92442969
0.0019296482 	0.058233582 	0.026484919 	0.92442969
0.0019497487 	0.064204841 	0.023975885 	0.92397992
0.0019698492 	0.064204841 	0.023975885 	0.92397992
0.0019899497 	0.064204841 	0.023975885 	0.92397992
0.0020100503 	0.069100269 	0.021596258 	0.92314004
0.0020301508 	0.069100269 	0.021596258 	0.92314004
0.0020502513 	0.073013333 	0.019150145 	0.92154306
0.0020703518 	0.073013333 	0.019150145 	0.92154306
0.0020904523 	0.075967922 	0.016311189 	0.91882723
0.0021105528 	0.075967922 	0.016311189 	0.91882723
0.0021306533 	0.075967922 	0.016311189 	0.91882723
0.0021507538 	0.077816596 	0.012786323 	0.91478265
0.0021708543 	0.077816596 	0.012786323 	0.91478265
0.0021909548 	0.07828274 	0.0084334731 	0.90945238
0.0022110553 	0.07828274 	0.0084334731 	0.90945238
0.0022311558 	0.077016843 	0.0033532127 	0.90315687
0.0022512563 	0.077016843 	0.0033532127 	0.90315687
0.0022713568 	0.073703778 	-0.0022826828 	0.89648751
0.0022914573 	0.073703778 	-0.0022826828 	0.89648751
0.0023115578 	0.073703778 	-0.0022826828 	0.89648751
0.0023316583 	0.068133325 	-0.0086946676 	0.8901903
0.0023517588 	0.068133325 	-0.0086946676 	0.8901903
0.0023718593 	0.060269089 	-0.016501529 	0.8848723
0.0023919598 	0.060269089 	-0.016501529 	0.8848723
0.0024120603 	0.050275123 	-0.025575309 	0.88066909
0.0024321608 	0.050275123 	-0.025575309 	0.88066909
0.0024522613 	0.038525555 	-0.034291893 	0.87748972
0.0024723618 	0.038525555 	-0.034291893 	0.87748972
0.0024924623 	0.025733748 	-0.040718291 	0.87578112
0.0025125628 	0.025733748 	-0.040718291 	0.87578112
0.0025326633 	0.012896439 	-0.044358187 	0.87652928
0.0025527638 	0.012896439 	-0.044358187 	0.87652928
0.0025728643 	0.00089899799 	-0.046113369 	0.88015425
0.0025929648 	0.00089899799 	-0.046113369 	0.88015425
0.0026130653 	-0.0095983438 	-0.046936342 	0.8858408
0.0026331658 	-0.0095983438 	-0.046936342 	0.8858408
0.0026532663 	-0.018248478 	-0.047050684 	0.8921021
0.0026733668 	-0.018248478 	-0.047050684 	0.8921021
0.0026934673 	-0.025041704 	-0.046426887 	0.89763947
0.0027135678 	-0.025041704 	-0.046426887 	0.89763947
0.0027336683 	-0.030070305 	-0.045216856 	0.90165401
0.0027537688 	-0.030070305 	-0.045216856 	0.90165401
0.0027738693 	-0.03348191 	-0.043857367 	0.90377825
0.0027939698 	-0.03348191 	-0.043857367 	0.90377825
0.0028140704 	-0.035436834 	-0.042838261 	0.90389869
0.0028341709 	-0.035436834 	-0.042838261 	0.90389869
0.0028542714 	-0.036082472 	-0.042494411 	0.90204251
0.0028743719 	-0.035543146 	-0.042906982 	0.89828636
0.0028944724 	-0.035543146 	-0.042906982 	0.89828636
0.0029145729 	-0.033919984 	-0.043899356 	0.89270115
0.0029346734 	-0.033919984 	-0.043899356 	0.89270115
0.0029547739 	-0.031284485 	-0.045070948 	0.88532743
0.0029748744 	-0.031284485 	-0.045070948 	0.88532743
0.0029949749 	-0.027693832 	-0.045841732 	0.87621683
0.0030150754 	-0.023206708 	-0.045534122 	0.86554352
0.0030351759 	-0.023206708 	-0.045534122 	0.86554352
0.0030552764 	-0.017915689 	-0.043507483 	0.85371563
0.0030753769 	-0.017915689 	-0.043507483 	0.85371563
0.0030954774 	-0.01197256 	-0.039357448 	0.84137627
0.0031155779 	-0.0055775826 	-0.03309545 	0.8292492
0.0031356784 	-0.0055775826 	-0.03309545 	0.8292492
0.0031557789 	0.001054227 	-0.025251386 	0.81787651
0.0031758794 	0.001054227 	-0.025251386 	0.81787651
0.0031959799 	0.0076845539 	-0.016835353 	0.80743538
0.0032160804 	0.014001531 	-0.0091150103 	0.79770693
0.0032361809 	0.014001531 	-0.0091150103 	0.79770693
0.0032562814 	0.019675953 	-0.0033560884 	0.78836388
0.0032763819 	0.024385437 	-0.0005238841 	0.77918701
0.0032964824 	0.024385437 	-0.0005238841 	0.77918701
0.0033165829 	0.027792162 	-0.0011403056 	0.77019389
0.0033366834 	0.029587797 	-0.0054020579 	0.76173436
0.0033567839 	0.029587797 	-0.0054020579 	0.76173436
0.0033768844 	0.029544448 	-0.013324684 	0.75448607
0.0033969849 	0.027658881 	-0.024509768 	0.74922282
0.0034170854 	0.027658881 	-0.024509768 	0.74922282
0.0034371859 	0.024229465 	-0.037660754 	0.74591609
0.0034572864 	0.019921232 	-0.050488904 	0.74299434
0.0034773869 	0.015705059 	-0.06034149 	0.73755637
0.0034974874 	0.015705059 	-0.06034149 	0.73755637
0.0035175879 	0.012553926 	-0.065171151 	0.72645221
0.0035376884 	0.011066857 	-0.064248314 	0.70746757
0.0035577889 	0.011241761 	-0.058384693 	0.6800832
0.0035778894 	0.011241761 	-0.058384693 	0.6800832
0.0035979899 	0.012518995 	-0.049641464 	0.64564233
0.0036180905 	0.014078614 	-0.040521816 	0.60680099
0.003638191 	0.01522902 	-0.032972205 	0.56640812
0.0036582915 	0.01522902 	-0.032972205 	0.56640812
0.003678392 	0.015649909 	-0.027793386 	0.52645914
0.0036984925 	0.015371493 	-0.02474984 	0.48773664
0.003718593 	0.014589139 	-0.023103427 	0.45013271
0.0037386935 	0.01349522 	-0.022117901 	0.4131792
0.003758794 	0.012215598 	-0.021289822 	0.37639906
0.0037788945 	0.012215598 	-0.021289822 	0.37639906
0.003798995 	0.01082163 	-0.020345688 	0.33942368
0.0038190955 	0.0093588875 	-0.019152813 	0.30199986
0.003839196 	0.0078636567 	-0.017651758 	0.26399421
0.0038592965 	0.0063685986 	-0.015831309 	0.22542941
0.003879397 	0.0049065848 	-0.013718172 	0.18654133
0.0038994975 	0.003516971 	-0.011360894 	0.14782808
0.003919598 	0.0022535714 	-0.0088172306 	0.11006065
0.0039396985 	0.0011910574 	-0.0061640114 	0.074228208
0.003959799 	0.00042107238 	-0.0035257643 	0.041393092
0.0039798995 	3.6048152e-05 	-0.0010764006 	0.012435475
0.004 	3.6048152e-05 	-0.0010764006 	0.012435475
