0 	0.036218824 	-0.0095737818 	1.0293768
5.5555556e-05 	-0.021890308 	-0.032874622 	1.0236624
0.00011111111 	-0.024624106 	-0.032253772 	1.0202472
0.00016666667 	-0.025443502 	-0.03282119 	1.0163583
0.00022222222 	-0.025770622 	-0.033368577 	1.0119694
0.00027777778 	-0.026026207 	-0.033356843 	1.0071142
0.00033333333 	-0.026426083 	-0.032476993 	1.0019051
0.00038888889 	-0.027150123 	-0.030559142 	0.99654884
0.00044444444 	-0.028383838 	-0.027581278 	0.99133293
0.0005 	-0.030302252 	-0.023696891 	0.98656757
0.00055555556 	-0.033019263 	-0.019245407 	0.98248808
0.00061111111 	-0.036526919 	-0.014709344 	0.97916503
0.00066666667 	-0.040639542 	-0.010639464 	0.97647956
0.00072222222 	-0.044975367 	-0.0075816 	0.97418435
0.00077777778 	-0.048982028 	-0.0060081783 	0.97200263
0.00083333333 	-0.052003396 	-0.00624045 	0.96971061
0.00088888889 	-0.053464299 	-0.0083537916 	0.96719919
0.00094444444 	-0.053027919 	-0.012060353 	0.96452201
0.001 	-0.050374081 	-0.016988771 	0.96176558
0.0010617224 	-0.045338054 	-0.022434836 	0.9595065
0.0011225923 	-0.038819261 	-0.026777764 	0.95845434
0.0011826215 	-0.031341529 	-0.029178464 	0.95909994
0.0012418217 	-0.023413164 	-0.028950617 	0.96159536
0.0013002041 	-0.015252371 	-0.025915614 	0.96558594
0.0013577803 	-0.0069013041 	-0.020410098 	0.97031547
0.0014145612 	0.0015909954 	-0.013255914 	0.9749723
0.0014705579 	0.010116393 	-0.0054475497 	0.97894614
0.0015257812 	0.0185027 	0.0021173752 	0.98192956
0.0015802418 	0.02648272 	0.0088281843 	0.98380535
0.0016339502 	0.03373402 	0.014285242 	0.98461427
0.0016869168 	0.039939311 	0.018307429 	0.98450591
0.0017391518 	0.044904577 	0.020757482 	0.98375886
0.0017906654 	0.048466313 	0.021512243 	0.98270075
0.0018414676 	0.050621062 	0.020467057 	0.98163419
0.0018915681 	0.051560453 	0.017504168 	0.98073633
0.0019409766 	0.051658298 	0.012624178 	0.97999392
0.0019897027 	0.051391994 	0.0059860508 	0.97925592
0.0020377558 	0.051200817 	-0.0020680469 	0.97835563
0.0020851453 	0.051408284 	-0.0110254 	0.97719653
0.0021318802 	0.052194111 	-0.02025406 	0.97579565
0.0021779697 	0.053553296 	-0.029121068 	0.97430242
0.0022234225 	0.055346006 	-0.037055791 	0.97299635
0.0022682477 	0.057358204 	-0.043627767 	0.9722154
0.0023124537 	0.05937875 	-0.048608738 	0.97224471
0.0023560491 	0.061250193 	-0.051985895 	0.97320973
0.0023990425 	0.062891864 	-0.053913371 	0.97505057
0.002441442 	0.064289692 	-0.054628882 	0.97756406
0.002483256 	0.065444719 	-0.054379579 	0.98046902
0.0025244924 	0.066361691 	-0.053381947 	0.98344681
0.0025651593 	0.067051737 	-0.05182169 	0.98615274
0.0026052645 	0.067542049 	-0.049876069 	0.98821906
0.0026448158 	0.067883927 	-0.047744649 	0.98927479
0.0026838209 	0.068132839 	-0.045672602 	0.98899381
0.0027222872 	0.068333612 	-0.043952274 	0.98715936
0.0027602223 	0.068519319 	-0.042899633 	0.98372199
0.0027976334 	0.068706157 	-0.042811352 	0.97883369
0.0028345278 	0.068891856 	-0.043916391 	0.97282888
0.0028709126 	0.069052142 	-0.046378199 	0.96618824
0.002906795 	0.069155293 	-0.050284825 	0.95949576
0.0029421817 	0.069188317 	-0.055599496 	0.95334687
0.0029770797 	0.069172176 	-0.062301009 	0.94820268
0.0030114957 	0.069292621 	-0.070706561 	0.94430455
0.0030454363 	0.070008764 	-0.081132387 	0.94159986
0.0030789082 	0.071829821 	-0.092990418 	0.93962381
0.0031119178 	0.074876314 	-0.10476956 	0.93750491
0.0031444715 	0.078724899 	-0.11501828 	0.93403356
0.0031765755 	0.082535274 	-0.12312133 	0.92768533
0.0032082362 	0.085103742 	-0.12924681 	0.91702612
0.0032394596 	0.085019284 	-0.13361329 	0.90175639
0.0032702517 	0.08117435 	-0.13551753 	0.88336822
0.0033006186 	0.073372854 	-0.13291975 	0.86450823
0.003330566 	0.062457555 	-0.12341236 	0.84760075
0.0033600998 	0.049796153 	-0.10565282 	0.83381495
0.0033892257 	0.036761329 	-0.080233186 	0.82301523
0.0034179494 	0.024387767 	-0.049397516 	0.81376732
0.0034462763 	0.013365156 	-0.016490521 	0.80357807
0.003474212 	0.0041220039 	0.014573538 	0.78993907
0.0035017619 	-0.0033046713 	0.04037427 	0.77153661
0.0035289312 	-0.008971409 	0.058881234 	0.74889929
0.0035557253 	-0.012830784 	0.069804774 	0.72377912
0.0035821494 	-0.014780811 	0.074090772 	0.69802355
0.0036082084 	-0.014776815 	0.073046012 	0.67299616
0.0036339076 	-0.013051181 	0.067739354 	0.6496405
0.0036592518 	-0.010143553 	0.05899388 	0.62863832
0.003684246 	-0.0067142789 	0.047690673 	0.61022052
0.003708895 	-0.0033231497 	0.034939887 	0.59383357
0.0037332035 	-0.00034015815 	0.022025415 	0.57810561
0.0037571763 	0.0020421692 	0.010203053 	0.56117666
0.003780818 	0.0037233871 	0.00050698864 	0.54109926
0.0038041332 	0.0046621414 	-0.0063909687 	0.51603413
0.0038271264 	0.0049106949 	-0.010256348 	0.48420937
0.0038498019 	0.0045789549 	-0.011283466 	0.4439461
0.0038721643 	0.0038316099 	-0.010046106 	0.39404483
0.0038942179 	0.002886541 	-0.0073802526 	0.33443333
0.0039159668 	0.0019358316 	-0.0042164555 	0.26655011
0.0039374154 	0.0011024733 	-0.001397913 	0.19296002
0.0039585677 	0.00045390131 	0.00042596502 	0.1163238
0.0039794279 	5.5087655e-05 	0.00075602665 	0.038638548
0.004 	5.5087655e-05 	0.00075602665 	0.038638548
