0 	-0.010586515 	0.0054201025 	1.0646805
2.0100503e-05 	-0.010586515 	0.0054201025 	1.0646805
4.0201005e-05 	-0.010586515 	0.0054201025 	1.0646805
6.0301508e-05 	-0.01371305 	0.0011257457 	1.0615413
8.040201e-05 	-0.01371305 	0.0011257457 	1.0615413
0.00010050251 	-0.01371305 	0.0011257457 	1.0615413
0.00012060302 	-0.016313654 	0.00014438099 	1.0580227
0.00014070352 	-0.016313654 	0.00014438099 	1.0580227
0.00016080402 	-0.016313654 	0.00014438099 	1.0580227
0.00018090452 	-0.019591921 	-0.00023185304 	1.0540204
0.00020100503 	-0.019591921 	-0.00023185304 	1.0540204
0.00022110553 	-0.019591921 	-0.00023185304 	1.0540204
0.00024120603 	-0.023555832 	-0.00047861079 	1.0494616
0.00026130653 	-0.023555832 	-0.00047861079 	1.0494616
0.00028140704 	-0.028078905 	-0.00074413001 	1.0443562
0.00030150754 	-0.028078905 	-0.00074413001 	1.0443562
0.00032160804 	-0.028078905 	-0.00074413001 	1.0443562
0.00034170854 	-0.032948479 	-0.001061479 	1.0388249
0.00036180905 	-0.032948479 	-0.001061479 	1.0388249
0.00038190955 	-0.032948479 	-0.001061479 	1.0388249
0.00040201005 	-0.03793012 	-0.0012942581 	1.0331228
0.00042211055 	-0.03793012 	-0.0012942581 	1.0331228
0.00044221106 	-0.03793012 	-0.0012942581 	1.0331228
0.00046231156 	-0.042855106 	-0.0011308492 	1.0276729
0.00048241206 	-0.042855106 	-0.0011308492 	1.0276729
0.00050251256 	-0.047652181 	-0.00031752783 	1.0230677
0.00052261307 	-0.047652181 	-0.00031752783 	1.0230677
0.00054271357 	-0.047652181 	-0.00031752783 	1.0230677
0.00056281407 	-0.052255334 	0.00097217095 	1.0198507
0.00058291457 	-0.052255334 	0.00097217095 	1.0198507
0.00060301508 	-0.052255334 	0.00097217095 	1.0198507
0.00062311558 	-0.056492698 	0.0021053983 	1.0182062
0.00064321608 	-0.056492698 	0.0021053983 	1.0182062
0.00066331658 	-0.056492698 	0.0021053983 	1.0182062
0.00068341709 	-0.060165737 	0.0024672933 	1.0179562
0.00070351759 	-0.060165737 	0.0024672933 	1.0179562
0.00072361809 	-0.06321094 	0.0019230797 	1.018845
0.00074371859 	-0.06321094 	0.0019230797 	1.018845
0.0007638191 	-0.06321094 	0.0019230797 	1.018845
0.0007839196 	-0.065718497 	0.00071254672 	1.0206585
0.0008040201 	-0.065718497 	0.00071254672 	1.0206585
0.0008241206 	-0.065718497 	0.00071254672 	1.0206585
0.00084422111 	-0.067811576 	-0.00092114373 	1.0230805
0.00086432161 	-0.067811576 	-0.00092114373 	1.0230805
0.00088442211 	-0.067811576 	-0.00092114373 	1.0230805
0.00090452261 	-0.069460123 	-0.0028578092 	1.02554
0.00092462312 	-0.069460123 	-0.0028578092 	1.02554
0.00094472362 	-0.070594537 	-0.0051943661 	1.0273022
0.00096482412 	-0.070594537 	-0.0051943661 	1.0273022
0.00098492462 	-0.070594537 	-0.0051943661 	1.0273022
0.0010050251 	-0.071174716 	-0.0081263147 	1.0277657
0.0010251256 	-0.071174716 	-0.0081263147 	1.0277657
0.0010452261 	-0.071174716 	-0.0081263147 	1.0277657
0.0010653266 	-0.071002926 	-0.011807458 	1.0262678
0.0010854271 	-0.071002926 	-0.011807458 	1.0262678
0.0011055276 	-0.063342234 	-0.010889226 	1.029448
0.0011256281 	-0.062830165 	-0.014643498 	1.0271291
0.0011457286 	-0.062830165 	-0.014643498 	1.0271291
0.0011658291 	-0.062830165 	-0.014643498 	1.0271291
0.0011859296 	-0.061640725 	-0.019006494 	1.0232092
0.0012060302 	-0.061640725 	-0.019006494 	1.0232092
0.0012261307 	-0.061640725 	-0.019006494 	1.0232092
0.0012462312 	-0.059907623 	-0.023762093 	1.0183306
0.0012663317 	-0.059907623 	-0.023762093 	1.0183306
0.0012864322 	-0.059907623 	-0.023762093 	1.0183306
0.0013065327 	-0.057765393 	-0.028464833 	1.0129462
0.0013266332 	-0.057765393 	-0.028464833 	1.0129462
0.0013467337 	-0.057765393 	-0.028464833 	1.0129462
0.0013668342 	-0.055394184 	-0.03246297 	1.0072279
0.0013869347 	-0.055394184 	-0.03246297 	1.0072279
0.0014070352 	-0.055394184 	-0.03246297 	1.0072279
0.0014271357 	-0.052997973 	-0.035196314 	1.0010729
0.0014472362 	-0.052997973 	-0.035196314 	1.0010729
0.0014673367 	-0.052997973 	-0.035196314 	1.0010729
0.0014874372 	-0.05077459 	-0.036304713 	0.99433406
0.0015075377 	-0.05077459 	-0.036304713 	0.99433406
0.0015276382 	-0.048868306 	-0.035597048 	0.98702393
0.0015477387 	-0.048868306 	-0.035597048 	0.98702393
0.0015678392 	-0.048868306 	-0.035597048 	0.98702393
0.0015879397 	-0.047353399 	-0.032986197 	0.97935731
0.0016080402 	-0.047353399 	-0.032986197 	0.97935731
0.0016281407 	-0.047353399 	-0.032986197 	0.97935731
0.0016482412 	-0.046188674 	-0.028419101 	0.9716345
0.0016683417 	-0.046188674 	-0.028419101 	0.9716345
0.0016884422 	-0.045204358 	-0.021982199 	0.96406409
0.0017085427 	-0.045204358 	-0.021982199 	0.96406409
0.0017286432 	-0.045204358 	-0.021982199 	0.96406409
0.0017487437 	-0.044234924 	-0.014021412 	0.95664194
0.0017688442 	-0.044234924 	-0.014021412 	0.95664194
0.0017889447 	-0.044234924 	-0.014021412 	0.95664194
0.0018090452 	-0.043295703 	-0.005130417 	0.94915504
0.0018291457 	-0.043295703 	-0.005130417 	0.94915504
0.0018492462 	-0.042620895 	0.0039417917 	0.94133946
0.0018693467 	-0.042620895 	0.0039417917 	0.94133946
0.0018894472 	-0.042620895 	0.0039417917 	0.94133946
0.0019095477 	-0.04257819 	0.012356497 	0.93319394
0.0019296482 	-0.04257819 	0.012356497 	0.93319394
0.0019497487 	-0.043443726 	0.019249067 	0.92532594
0.0019698492 	-0.043443726 	0.019249067 	0.92532594
0.0019899497 	-0.043443726 	0.019249067 	0.92532594
0.0020100503 	-0.045146851 	0.023873795 	0.91898963
0.0020301508 	-0.045146851 	0.023873795 	0.91898963
0.0020502513 	-0.047316882 	0.025746948 	0.91535864
0.0020703518 	-0.047316882 	0.025746948 	0.91535864
0.0020904523 	-0.049619982 	0.024671019 	0.91441594
0.0021105528 	-0.049619982 	0.024671019 	0.91441594
0.0021306533 	-0.049619982 	0.024671019 	0.91441594
0.0021507538 	-0.052016134 	0.020646687 	0.9146347
0.0021708543 	-0.052016134 	0.020646687 	0.9146347
0.0021909548 	-0.054591847 	0.013855384 	0.91385507
0.0022110553 	-0.054591847 	0.013855384 	0.91385507
0.0022311558 	-0.057225344 	0.0046986719 	0.91053172
0.0022512563 	-0.057225344 	0.0046986719 	0.91053172
0.0022713568 	-0.059483023 	-0.0062004625 	0.9044721
0.0022914573 	-0.059483023 	-0.0062004625 	0.9044721
0.0023115578 	-0.059483023 	-0.0062004625 	0.9044721
0.0023316583 	-0.060982964 	-0.017927801 	0.89663563
0.0023517588 	-0.060982964 	-0.017927801 	0.89663563
0.0023718593 	-0.061658909 	-0.029202803 	0.88821184
0.0023919598 	-0.061658909 	-0.029202803 	0.88821184
0.0024120603 	-0.061734802 	-0.038743388 	0.87991319
0.0024321608 	-0.061734802 	-0.038743388 	0.87991319
0.0024522613 	-0.061635124 	-0.045654597 	0.87190353
0.0024723618 	-0.061635124 	-0.045654597 	0.87190353
0.0024924623 	-0.061760049 	-0.0495841 	0.86394509
0.0025125628 	-0.061760049 	-0.0495841 	0.86394509
0.0025326633 	-0.062379111 	-0.050589217 	0.85554741
0.0025527638 	-0.062379111 	-0.050589217 	0.85554741
0.0025728643 	-0.063630625 	-0.04896719 	0.84616144
0.0025929648 	-0.063630625 	-0.04896719 	0.84616144
0.0026130653 	-0.06558893 	-0.045214088 	0.83536826
0.0026331658 	-0.06558893 	-0.045214088 	0.83536826
0.0026532663 	-0.068298021 	-0.040024095 	0.82304427
0.0026733668 	-0.068298021 	-0.040024095 	0.82304427
0.0026934673 	-0.071728449 	-0.034302827 	0.80957794
0.0027135678 	-0.071728449 	-0.034302827 	0.80957794
0.0027336683 	-0.075647151 	-0.029225597 	0.79608099
0.0027537688 	-0.075647151 	-0.029225597 	0.79608099
0.0027738693 	-0.079620982 	-0.026319671 	0.78430229
0.0027939698 	-0.079620982 	-0.026319671 	0.78430229
0.0028140704 	-0.083256795 	-0.027396767 	0.77612292
0.0028341709 	-0.083256795 	-0.027396767 	0.77612292
0.0028542714 	-0.086360573 	-0.033746297 	0.77283217
0.0028743719 	-0.088700206 	-0.044986624 	0.77417039
0.0028944724 	-0.088700206 	-0.044986624 	0.77417039
0.0029145729 	-0.089858564 	-0.058792431 	0.77716923
0.0029346734 	-0.089858564 	-0.058792431 	0.77716923
0.0029547739 	-0.089351989 	-0.071923138 	0.77598205
0.0029748744 	-0.089351989 	-0.071923138 	0.77598205
0.0029949749 	-0.086886733 	-0.081604723 	0.76438058
0.0030150754 	-0.082763392 	-0.086434277 	0.73978892
0.0030351759 	-0.082763392 	-0.086434277 	0.73978892
0.0030552764 	-0.077782969 	-0.086399226 	0.70501263
0.0030753769 	-0.077782969 	-0.086399226 	0.70501263
0.0030954774 	-0.072708579 	-0.082104923 	0.66558111
0.0031155779 	-0.067795617 	-0.073863143 	0.6258119
0.0031356784 	-0.067795617 	-0.073863143 	0.6258119
0.0031557789 	-0.062869901 	-0.061790253 	0.58777744
0.0031758794 	-0.062869901 	-0.061790253 	0.58777744
0.0031959799 	-0.05773329 	-0.046527957 	0.55256662
0.0032160804 	-0.052443083 	-0.029434624 	0.52078418
0.0032361809 	-0.052443083 	-0.029434624 	0.52078418
0.0032562814 	-0.046988726 	-0.012192479 	0.49247432
0.0032763819 	-0.041638705 	0.003593501 	0.46706648
0.0032964824 	-0.041638705 	0.003593501 	0.46706648
0.0033165829 	-0.036821318 	0.016779147 	0.44399096
0.0033366834 	-0.032592016 	0.026826182 	0.42308977
0.0033567839 	-0.032592016 	0.026826182 	0.42308977
0.0033768844 	-0.028955512 	0.033654748 	0.40477847
0.0033969849 	-0.0259379 	0.03742063 	0.38980569
0.0034170854 	-0.0259379 	0.03742063 	0.38980569
0.0034371859 	-0.023568521 	0.038380805 	0.37878984
0.0034572864 	-0.021850315 	0.036823036 	0.37199258
0.0034773869 	-0.020738471 	0.033061256 	0.36928126
0.0034974874 	-0.020738471 	0.033061256 	0.36928126
0.0035175879 	-0.020130266 	0.027441347 	0.37020765
0.0035376884 	-0.019871395 	0.020330654 	0.37409587
0.0035577889 	-0.019782413 	0.012122289 	0.38011659
0.0035778894 	-0.019782413 	0.012122289 	0.38011659
0.0035979899 	-0.019703188 	0.0032332241 	0.38737758
0.0036180905 	-0.019375255 	-0.0059023989 	0.39493277
0.003638191 	-0.018573953 	-0.014862878 	0.40171684
0.0036582915 	-0.018573953 	-0.014862878 	0.40171684
0.003678392 	-0.017221984 	-0.023221993 	0.40680789
0.0036984925 	-0.015300337 	-0.030592444 	0.40953369
0.003718593 	-0.012903826 	-0.036622631 	0.40932896
0.0037386935 	-0.010180908 	-0.041031416 	0.40575247
0.003758794 	-0.0073304069 	-0.043635334 	0.39843694
0.0037788945 	-0.0073304069 	-0.043635334 	0.39843694
0.003798995 	-0.0045875864 	-0.044373828 	0.38702119
0.0038190955 	-0.002194118 	-0.043321943 	0.37107066
0.003839196 	-0.00035296728 	-0.040679666 	0.35000987
0.0038592965 	0.0008218354 	-0.036728259 	0.32314482
0.003879397 	0.0013373421 	-0.031778278 	0.28981504
0.0038994975 	0.0013164749 	-0.026134518 	0.24968527
0.003919598 	0.00096565597 	-0.020099722 	0.20301929
0.0039396985 	0.00051457758 	-0.014007965 	0.1506882
0.003959799 	0.00015205938 	-0.0082152791 	0.093780874
0.0039798995 	-5.0432614e-06 	-0.0028697177 	0.032900327
0.004 	-5.0432614e-06 	-0.0028697177 	0.032900327
