0 	0.012139096 	-0.00532126 	1.0539143
2.0100503e-05 	0.012139096 	-0.00532126 	1.0539143
4.0201005e-05 	0.012139096 	-0.00532126 	1.0539143
6.0301508e-05 	0.010766345 	-0.0085714629 	1.057517
8.040201e-05 	0.010766345 	-0.0085714629 	1.057517
0.00010050251 	0.010766345 	-0.0085714629 	1.057517
0.00012060302 	0.011269027 	-0.0084979301 	1.0610276
0.00014070352 	0.011269027 	-0.0084979301 	1.0610276
0.00016080402 	0.011269027 	-0.0084979301 	1.0610276
0.00018090452 	0.011493844 	-0.0077316126 	1.0643297
0.00020100503 	0.011493844 	-0.0077316126 	1.0643297
0.00022110553 	0.011493844 	-0.0077316126 	1.0643297
0.00024120603 	0.010896075 	-0.0064344554 	1.0672979
0.00026130653 	0.010896075 	-0.0064344554 	1.0672979
0.00028140704 	0.0093422035 	-0.0045061214 	1.0697674
0.00030150754 	0.0093422035 	-0.0045061214 	1.0697674
0.00032160804 	0.0093422035 	-0.0045061214 	1.0697674
0.00034170854 	0.0068641591 	-0.0018211928 	1.0714916
0.00036180905 	0.0068641591 	-0.0018211928 	1.0714916
0.00038190955 	0.0068641591 	-0.0018211928 	1.0714916
0.00040201005 	0.0036151289 	0.0016720697 	1.072163
0.00042211055 	0.0036151289 	0.0016720697 	1.072163
0.00044221106 	0.0036151289 	0.0016720697 	1.072163
0.00046231156 	-0.00012842693 	0.0059065722 	1.071542
0.00048241206 	-0.00012842693 	0.0059065722 	1.071542
0.00050251256 	-0.0039360249 	0.010624076 	1.0696339
0.00052261307 	-0.0039360249 	0.010624076 	1.0696339
0.00054271357 	-0.0039360249 	0.010624076 	1.0696339
0.00056281407 	-0.0072680487 	0.015322042 	1.0667333
0.00058291457 	-0.0072680487 	0.015322042 	1.0667333
0.00060301508 	-0.0072680487 	0.015322042 	1.0667333
0.00062311558 	-0.0096217372 	0.019229295 	1.063191
0.00064321608 	-0.0096217372 	0.019229295 	1.063191
0.00066331658 	-0.0096217372 	0.019229295 	1.063191
0.00068341709 	-0.010717014 	0.02151675 	1.059126
0.00070351759 	-0.010717014 	0.02151675 	1.059126
0.00072361809 	-0.010594266 	0.021656064 	1.0544192
0.00074371859 	-0.010594266 	0.021656064 	1.0544192
0.0007638191 	-0.010594266 	0.021656064 	1.0544192
0.0007839196 	-0.0095692722 	0.019695979 	1.0489258
0.0008040201 	-0.0095692722 	0.019695979 	1.0489258
0.0008241206 	-0.0095692722 	0.019695979 	1.0489258
0.00084422111 	-0.008073073 	0.016217542 	1.0425804
0.00086432161 	-0.008073073 	0.016217542 	1.0425804
0.00088442211 	-0.008073073 	0.016217542 	1.0425804
0.00090452261 	-0.0064714284 	0.012023655 	1.0353047
0.00092462312 	-0.0064714284 	0.012023655 	1.0353047
0.00094472362 	-0.0050370688 	0.0078088949 	1.0269249
0.00096482412 	-0.0050370688 	0.0078088949 	1.0269249
0.00098492462 	-0.0050370688 	0.0078088949 	1.0269249
0.0010050251 	-0.0039223576 	0.0037549381 	1.0167105
0.0010251256 	0.00021039236 	0.0031635154 	1.0150775
0.0010452261 	0.00021039236 	0.0031635154 	1.0150775
0.0010653266 	0.00072291091 	0.00013803925 	1.000945
0.0010854271 	0.00072291091 	0.00013803925 	1.000945
0.0011055276 	0.00072291091 	0.00013803925 	1.000945
0.0011256281 	-0.0033031198 	-0.0032112468 	0.99117933
0.0011457286 	-0.0033031198 	-0.0032112468 	0.99117933
0.0011658291 	-0.0033031198 	-0.0032112468 	0.99117933
0.0011859296 	-0.0033475748 	-0.0069862002 	0.97718462
0.0012060302 	-0.0033475748 	-0.0069862002 	0.97718462
0.0012261307 	-0.0033475748 	-0.0069862002 	0.97718462
0.0012462312 	-0.0029157742 	-0.011870167 	0.96312576
0.0012663317 	-0.0029157742 	-0.011870167 	0.96312576
0.0012864322 	-0.0029157742 	-0.011870167 	0.96312576
0.0013065327 	-0.0014708591 	-0.018274012 	0.94968605
0.0013266332 	-0.0014708591 	-0.018274012 	0.94968605
0.0013467337 	-0.0014708591 	-0.018274012 	0.94968605
0.0013668342 	0.0012387456 	-0.026061627 	0.93757809
0.0013869347 	0.0012387456 	-0.026061627 	0.93757809
0.0014070352 	0.0012387456 	-0.026061627 	0.93757809
0.0014271357 	0.0050973731 	-0.034644818 	0.92738985
0.0014472362 	0.0050973731 	-0.034644818 	0.92738985
0.0014673367 	0.0050973731 	-0.034644818 	0.92738985
0.0014874372 	0.0097221573 	-0.043295778 	0.91941119
0.0015075377 	0.0097221573 	-0.043295778 	0.91941119
0.0015276382 	0.01466597 	-0.051424372 	0.91358068
0.0015477387 	0.01466597 	-0.051424372 	0.91358068
0.0015678392 	0.01466597 	-0.051424372 	0.91358068
0.0015879397 	0.019497414 	-0.058656455 	0.90957886
0.0016080402 	0.019497414 	-0.058656455 	0.90957886
0.0016281407 	0.019497414 	-0.058656455 	0.90957886
0.0016482412 	0.02385285 	-0.064791476 	0.9069746
0.0016683417 	0.02385285 	-0.064791476 	0.9069746
0.0016884422 	0.02745619 	-0.069684334 	0.90534503
0.0017085427 	0.02745619 	-0.069684334 	0.90534503
0.0017286432 	0.02745619 	-0.069684334 	0.90534503
0.0017487437 	0.030097487 	-0.073241675 	0.90434842
0.0017688442 	0.030097487 	-0.073241675 	0.90434842
0.0017889447 	0.030097487 	-0.073241675 	0.90434842
0.0018090452 	0.031661027 	-0.075433819 	0.90378261
0.0018291457 	0.031661027 	-0.075433819 	0.90378261
0.0018492462 	0.03215568 	-0.076301323 	0.90357693
0.0018693467 	0.03215568 	-0.076301323 	0.90357693
0.0018894472 	0.03215568 	-0.076301323 	0.90357693
0.0019095477 	0.031645489 	-0.075924397 	0.90375813
0.0019296482 	0.031645489 	-0.075924397 	0.90375813
0.0019497487 	0.030258077 	-0.074393907 	0.90440983
0.0019698492 	0.030258077 	-0.074393907 	0.90440983
0.0019899497 	0.028156485 	-0.071815127 	0.90563604
0.0020100503 	0.028156485 	-0.071815127 	0.90563604
0.0020301508 	0.028156485 	-0.071815127 	0.90563604
0.0020502513 	0.025488433 	-0.068337475 	0.90754841
0.0020703518 	0.025488433 	-0.068337475 	0.90754841
0.0020904523 	0.022349833 	-0.064212663 	0.91025117
0.0021105528 	0.022349833 	-0.064212663 	0.91025117
0.0021306533 	0.022349833 	-0.064212663 	0.91025117
0.0021507538 	0.018763403 	-0.059786867 	0.91380841
0.0021708543 	0.018763403 	-0.059786867 	0.91380841
0.0021909548 	0.014673239 	-0.055459661 	0.91822781
0.0022110553 	0.014673239 	-0.055459661 	0.91822781
0.0022311558 	0.010013021 	-0.051525371 	0.92343662
0.0022512563 	0.010013021 	-0.051525371 	0.92343662
0.0022713568 	0.0047749535 	-0.047995313 	0.92928004
0.0022914573 	0.0047749535 	-0.047995313 	0.92928004
0.0023115578 	0.0047749535 	-0.047995313 	0.92928004
0.0023316583 	-0.00095623247 	-0.044536176 	0.93549709
0.0023517588 	-0.00095623247 	-0.044536176 	0.93549709
0.0023718593 	-0.0070184319 	-0.040627859 	0.94165907
0.0023919598 	-0.0070184319 	-0.040627859 	0.94165907
0.0024120603 	-0.013247987 	-0.035899522 	0.94715371
0.0024321608 	-0.013247987 	-0.035899522 	0.94715371
0.0024522613 	-0.019577501 	-0.030435701 	0.95135582
0.0024723618 	-0.019577501 	-0.030435701 	0.95135582
0.0024924623 	-0.026091735 	-0.024884656 	0.95395394
0.0025125628 	-0.026091735 	-0.024884656 	0.95395394
0.0025326633 	-0.032987133 	-0.020267 	0.95507466
0.0025527638 	-0.032987133 	-0.020267 	0.95507466
0.0025728643 	-0.040446752 	-0.017536244 	0.95477494
0.0025929648 	-0.040446752 	-0.017536244 	0.95477494
0.0026130653 	-0.048461496 	-0.01697475 	0.95200542
0.0026331658 	-0.048461496 	-0.01697475 	0.95200542
0.0026532663 	-0.056618836 	-0.017811744 	0.94402967
0.0026733668 	-0.056618836 	-0.017811744 	0.94402967
0.0026934673 	-0.064105588 	-0.018340202 	0.92745538
0.0027135678 	-0.064105588 	-0.018340202 	0.92745538
0.0027336683 	-0.070075807 	-0.016622634 	0.90065096
0.0027537688 	-0.070075807 	-0.016622634 	0.90065096
0.0027738693 	-0.074102012 	-0.011430806 	0.86546897
0.0027939698 	-0.074102012 	-0.011430806 	0.86546897
0.0028140704 	-0.076384735 	-0.0028884377 	0.82641301
0.0028341709 	-0.076384735 	-0.0028884377 	0.82641301
0.0028542714 	-0.077573864 	0.0077400802 	0.78809072
0.0028743719 	-0.078499129 	0.018860842 	0.75344767
0.0028944724 	-0.078499129 	0.018860842 	0.75344767
0.0029145729 	-0.079679508 	0.02916912 	0.72341098
0.0029346734 	-0.079679508 	0.02916912 	0.72341098
0.0029547739 	-0.08114118 	0.037882486 	0.69756284
0.0029748744 	-0.08114118 	0.037882486 	0.69756284
0.0029949749 	-0.082651692 	0.044688046 	0.6752348
0.0030150754 	-0.083806474 	0.049569797 	0.65629845
0.0030351759 	-0.083806474 	0.049569797 	0.65629845
0.0030552764 	-0.084248227 	0.052563436 	0.64106504
0.0030753769 	-0.084248227 	0.052563436 	0.64106504
0.0030954774 	-0.083828056 	0.053683725 	0.62980084
0.0031155779 	-0.082603386 	0.053038246 	0.62237777
0.0031356784 	-0.082603386 	0.053038246 	0.62237777
0.0031557789 	-0.080737264 	0.050894292 	0.61824807
0.0031758794 	-0.080737264 	0.050894292 	0.61824807
0.0031959799 	-0.078410608 	0.047621931 	0.61662089
0.0032160804 	-0.07577658 	0.043610489 	0.61664826
0.0032361809 	-0.07577658 	0.043610489 	0.61664826
0.0032562814 	-0.072943624 	0.039202604 	0.61753915
0.0032763819 	-0.069970438 	0.034660809 	0.61860867
0.0032964824 	-0.069970438 	0.034660809 	0.61860867
0.0033165829 	-0.066872405 	0.030165771 	0.61929026
0.0033366834 	-0.063638004 	0.025839508 	0.61912548
0.0033567839 	-0.063638004 	0.025839508 	0.61912548
0.0033768844 	-0.060249709 	0.021773054 	0.61774539
0.0033969849 	-0.056693726 	0.018044165 	0.61485124
0.0034170854 	-0.056693726 	0.018044165 	0.61485124
0.0034371859 	-0.052964816 	0.014717861 	0.61020578
0.0034572864 	-0.049138946 	0.011844644 	0.60361653
0.0034773869 	-0.045311512 	0.009441546 	0.59499663
0.0034974874 	-0.045311512 	0.009441546 	0.59499663
0.0035175879 	-0.041539429 	0.0074883012 	0.58429396
0.0035376884 	-0.037890705 	0.0059244571 	0.57147474
0.0035577889 	-0.034436094 	0.004649076 	0.55652383
0.0035778894 	-0.034436094 	0.004649076 	0.55652383
0.0035979899 	-0.031232904 	0.0035410578 	0.53943696
0.0036180905 	-0.028311914 	0.0024889368 	0.52023363
0.003638191 	-0.025669656 	0.0014288208 	0.4989709
0.0036582915 	-0.025669656 	0.0014288208 	0.4989709
0.003678392 	-0.023267798 	0.00037247138 	0.47575674
0.0036984925 	-0.021040806 	-0.00058699962 	0.45075158
0.003718593 	-0.018911655 	-0.0012990258 	0.42415822
0.0037386935 	-0.016812365 	-0.0015974127 	0.39619508
0.003758794 	-0.014701799 	-0.0013518718 	0.36707079
0.0037788945 	-0.014701799 	-0.0013518718 	0.36707079
0.003798995 	-0.01257528 	-0.00051026231 	0.33695739
0.0038190955 	-0.010462969 	0.00087773049 	0.30596713
0.003839196 	-0.0084183092 	0.0026610893 	0.27413437
0.0038592965 	-0.0065025121 	0.004607155 	0.24140822
0.003879397 	-0.0047701095 	0.0064289335 	0.20766308
0.0038994975 	-0.003261958 	0.0078066535 	0.17273271
0.003919598 	-0.0020063482 	0.0083997992 	0.13646801
0.0039396985 	-0.0010279689 	0.0078596679 	0.098811144
0.003959799 	-0.00035542167 	0.0058772257 	0.059889004
0.0039798995 	-3.0265882e-05 	0.0023375868 	0.020100815
0.004 	-3.0265882e-05 	0.0023375868 	0.020100815
