0 	-0.046738204 	-0.02306686 	1.0860451
2.0100503e-05 	-0.046738204 	-0.02306686 	1.0860451
4.0201005e-05 	-0.046738204 	-0.02306686 	1.0860451
6.0301508e-05 	-0.033398056 	-0.040566061 	1.091405
8.040201e-05 	-0.033398056 	-0.040566061 	1.091405
0.00010050251 	-0.033398056 	-0.040566061 	1.091405
0.00012060302 	-0.029418353 	-0.042789608 	1.0965732
0.00014070352 	-0.029418353 	-0.042789608 	1.0965732
0.00016080402 	-0.029418353 	-0.042789608 	1.0965732
0.00018090452 	-0.027630202 	-0.042151703 	1.101312
0.00020100503 	-0.027630202 	-0.042151703 	1.101312
0.00022110553 	-0.027630202 	-0.042151703 	1.101312
0.00024120603 	-0.02621193 	-0.040417855 	1.1053962
0.00026130653 	-0.02621193 	-0.040417855 	1.1053962
0.00028140704 	-0.024602047 	-0.038232673 	1.1085989
0.00030150754 	-0.024602047 	-0.038232673 	1.1085989
0.00032160804 	-0.024602047 	-0.038232673 	1.1085989
0.00034170854 	-0.022620415 	-0.035954426 	1.1107327
0.00036180905 	-0.022620415 	-0.035954426 	1.1107327
0.00038190955 	-0.022620415 	-0.035954426 	1.1107327
0.00040201005 	-0.020240319 	-0.033789374 	1.1116956
0.00042211055 	-0.020240319 	-0.033789374 	1.1116956
0.00044221106 	-0.020240319 	-0.033789374 	1.1116956
0.00046231156 	-0.017497426 	-0.031835159 	1.1114923
0.00048241206 	-0.017497426 	-0.031835159 	1.1114923
0.00050251256 	-0.014431685 	-0.030113255 	1.1102126
0.00052261307 	-0.014431685 	-0.030113255 	1.1102126
0.00054271357 	-0.014431685 	-0.030113255 	1.1102126
0.00056281407 	-0.011063445 	-0.028593219 	1.107997
0.00058291457 	-0.011063445 	-0.028593219 	1.107997
0.00060301508 	-0.011063445 	-0.028593219 	1.107997
0.00062311558 	-0.0060415159 	-0.029823636 	1.1075695
0.00064321608 	-0.0060415159 	-0.029823636 	1.1075695
0.00066331658 	-0.0060415159 	-0.029823636 	1.1075695
0.00068341709 	-0.002253471 	-0.028407526 	1.1029295
0.00070351759 	-0.0033905876 	-0.025954777 	1.1014264
0.00072361809 	0.00092858723 	-0.024733651 	1.0974345
0.00074371859 	0.00092858723 	-0.024733651 	1.0974345
0.0007638191 	0.00092858723 	-0.024733651 	1.0974345
0.0007839196 	0.0055357219 	-0.023538227 	1.0932312
0.0008040201 	0.0055357219 	-0.023538227 	1.0932312
0.0008241206 	0.0055357219 	-0.023538227 	1.0932312
0.00084422111 	0.010339408 	-0.022349037 	1.0889965
0.00086432161 	0.010339408 	-0.022349037 	1.0889965
0.00088442211 	0.01131276 	-0.024243576 	1.0877414
0.00090452261 	0.016115614 	-0.022936372 	1.0830073
0.00092462312 	0.016115614 	-0.022936372 	1.0830073
0.00094472362 	0.020798318 	-0.021699258 	1.078669
0.00096482412 	0.020798318 	-0.021699258 	1.078669
0.00098492462 	0.020798318 	-0.021699258 	1.078669
0.0010050251 	0.025349025 	-0.02053317 	1.0744974
0.0010251256 	0.025349025 	-0.02053317 	1.0744974
0.0010452261 	0.025349025 	-0.02053317 	1.0744974
0.0010653266 	0.029401554 	-0.019390359 	1.0704678
0.0010854271 	0.029401554 	-0.019390359 	1.0704678
0.0011055276 	0.029401554 	-0.019390359 	1.0704678
0.0011256281 	0.032604409 	-0.018262102 	1.0664508
0.0011457286 	0.032604409 	-0.018262102 	1.0664508
0.0011658291 	0.032604409 	-0.018262102 	1.0664508
0.0011859296 	0.034985558 	-0.016891463 	1.0620072
0.0012060302 	0.034985558 	-0.016891463 	1.0620072
0.0012261307 	0.034985558 	-0.016891463 	1.0620072
0.0012462312 	0.036659316 	-0.014986899 	1.056854
0.0012663317 	0.036659316 	-0.014986899 	1.056854
0.0012864322 	0.036659316 	-0.014986899 	1.056854
0.0013065327 	0.037767168 	-0.012307345 	1.0509995
0.0013266332 	0.037767168 	-0.012307345 	1.0509995
0.0013467337 	0.037767168 	-0.012307345 	1.0509995
0.0013668342 	0.038376924 	-0.0087839252 	1.0447541
0.0013869347 	0.038376924 	-0.0087839252 	1.0447541
0.0014070352 	0.038376924 	-0.0087839252 	1.0447541
0.0014271357 	0.038480477 	-0.0045869907 	1.0386009
0.0014472362 	0.041699916 	-0.0026887945 	1.0389664
0.0014673367 	0.041699916 	-0.0026887945 	1.0389664
0.0014874372 	0.038078871 	-6.741257e-05 	1.032955
0.0015075377 	0.038078871 	-6.741257e-05 	1.032955
0.0015276382 	0.03719903 	0.004336774 	1.0279425
0.0015477387 	0.03719903 	0.004336774 	1.0279425
0.0015678392 	0.03719903 	0.004336774 	1.0279425
0.0015879397 	0.035913945 	0.0081245985 	1.0233243
0.0016080402 	0.035913945 	0.0081245985 	1.0233243
0.0016281407 	0.035913945 	0.0081245985 	1.0233243
0.0016482412 	0.034369763 	0.010790403 	1.0185767
0.0016683417 	0.034369763 	0.010790403 	1.0185767
0.0016884422 	0.032724302 	0.011872174 	1.0131156
0.0017085427 	0.032724302 	0.011872174 	1.0131156
0.0017286432 	0.032724302 	0.011872174 	1.0131156
0.0017487437 	0.031126008 	0.011118345 	1.0065784
0.0017688442 	0.031126008 	0.011118345 	1.0065784
0.0017889447 	0.031126008 	0.011118345 	1.0065784
0.0018090452 	0.029669932 	0.0087521629 	0.99911609
0.0018291457 	0.029669932 	0.0087521629 	0.99911609
0.0018492462 	0.028380127 	0.0056400691 	0.99158413
0.0018693467 	0.028380127 	0.0056400691 	0.99158413
0.0018894472 	0.028380127 	0.0056400691 	0.99158413
0.0019095477 	0.027259691 	0.0031259078 	0.9853678
0.0019296482 	0.027259691 	0.0031259078 	0.9853678
0.0019497487 	0.02642286 	0.0025208647 	0.98170773
0.0019698492 	0.02642286 	0.0025208647 	0.98170773
0.0019899497 	0.025996859 	0.0045367217 	0.98095555
0.0020100503 	0.025996859 	0.0045367217 	0.98095555
0.0020301508 	0.025996859 	0.0045367217 	0.98095555
0.0020502513 	0.026077739 	0.0090904218 	0.98217446
0.0020703518 	0.026077739 	0.0090904218 	0.98217446
0.0020904523 	0.026620828 	0.015362864 	0.98340296
0.0021105528 	0.026620828 	0.015362864 	0.98340296
0.0021306533 	0.026620828 	0.015362864 	0.98340296
0.0021507538 	0.027350961 	0.022171686 	0.98249992
0.0021708543 	0.027350961 	0.022171686 	0.98249992
0.0021909548 	0.027956832 	0.028323436 	0.97807914
0.0022110553 	0.027956832 	0.028323436 	0.97807914
0.0022311558 	0.028174 	0.032844824 	0.96992875
0.0022512563 	0.028174 	0.032844824 	0.96992875
0.0022713568 	0.027869796 	0.035138048 	0.95881779
0.0022914573 	0.027869796 	0.035138048 	0.95881779
0.0023115578 	0.027869796 	0.035138048 	0.95881779
0.0023316583 	0.027046619 	0.035088066 	0.94600033
0.0023517588 	0.027046619 	0.035088066 	0.94600033
0.0023718593 	0.02579555 	0.033070752 	0.93271695
0.0023919598 	0.02579555 	0.033070752 	0.93271695
0.0024120603 	0.024264409 	0.029832841 	0.91983696
0.0024321608 	0.024264409 	0.029832841 	0.91983696
0.0024522613 	0.022605554 	0.026243426 	0.90773222
0.0024723618 	0.022605554 	0.026243426 	0.90773222
0.0024924623 	0.020900277 	0.023029915 	0.89640203
0.0025125628 	0.020900277 	0.023029915 	0.89640203
0.0025326633 	0.019114492 	0.020617735 	0.88575565
0.0025527638 	0.019114492 	0.020617735 	0.88575565
0.0025728643 	0.017092329 	0.019060774 	0.87580383
0.0025929648 	0.017092329 	0.019060774 	0.87580383
0.0026130653 	0.014592159 	0.018063873 	0.86667996
0.0026331658 	0.014592159 	0.018063873 	0.86667996
0.0026532663 	0.011306431 	0.016920354 	0.85850048
0.0026733668 	0.011306431 	0.016920354 	0.85850048
0.0026934673 	0.0068645339 	0.014467712 	0.85127863
0.0027135678 	0.0068645339 	0.014467712 	0.85127863
0.0027336683 	0.00083293987 	0.0092756957 	0.84496827
0.0027537688 	0.00083293987 	0.0092756957 	0.84496827
0.0027738693 	-0.0069039442 	0.00049117951 	0.83969939
0.0027939698 	-0.0069039442 	0.00049117951 	0.83969939
0.0028140704 	-0.016073843 	-0.010883453 	0.8359334
0.0028341709 	-0.016073843 	-0.010883453 	0.8359334
0.0028542714 	-0.026205429 	-0.021974604 	0.83408831
0.0028743719 	-0.036419292 	-0.029763927 	0.83362946
0.0028944724 	-0.036419292 	-0.029763927 	0.83362946
0.0029145729 	-0.045980387 	-0.032909068 	0.83277772
0.0029346734 	-0.045980387 	-0.032909068 	0.83277772
0.0029547739 	-0.054592286 	-0.031591674 	0.82914406
0.0029748744 	-0.054592286 	-0.031591674 	0.82914406
0.0029949749 	-0.062122264 	-0.026416382 	0.82054824
0.0030150754 	-0.068426275 	-0.018077347 	0.80586913
0.0030351759 	-0.068426275 	-0.018077347 	0.80586913
0.0030552764 	-0.073375982 	-0.0078059712 	0.78582978
0.0030753769 	-0.073375982 	-0.0078059712 	0.78582978
0.0030954774 	-0.077156391 	0.0023636251 	0.7630483
0.0031155779 	-0.080175967 	0.0099239451 	0.74091086
0.0031356784 	-0.080175967 	0.0099239451 	0.74091086
0.0031557789 	-0.082725272 	0.012785942 	0.72182678
0.0031758794 	-0.082725272 	0.012785942 	0.72182678
0.0031959799 	-0.084877771 	0.010172074 	0.70661896
0.0032160804 	-0.086706979 	0.0028958695 	0.69481314
0.0032361809 	-0.086706979 	0.0028958695 	0.69481314
0.0032562814 	-0.088448212 	-0.0070447441 	0.68539497
0.0032763819 	-0.090457839 	-0.017194105 	0.67727422
0.0032964824 	-0.090457839 	-0.017194105 	0.67727422
0.0033165829 	-0.092989432 	-0.025566857 	0.66954613
0.0033366834 	-0.096096238 	-0.031253042 	0.66155892
0.0033567839 	-0.096096238 	-0.031253042 	0.66155892
0.0033768844 	-0.099673044 	-0.034283867 	0.65276938
0.0033969849 	-0.10348451 	-0.035039988 	0.64252862
0.0034170854 	-0.10348451 	-0.035039988 	0.64252862
0.0034371859 	-0.10717772 	-0.033860246 	0.63009768
0.0034572864 	-0.11037524 	-0.031045137 	0.61505456
0.0034773869 	-0.11260582 	-0.027114172 	0.59782048
0.0034974874 	-0.11260582 	-0.027114172 	0.59782048
0.0035175879 	-0.11322956 	-0.022789753 	0.57958307
0.0035376884 	-0.11165711 	-0.018593884 	0.56164083
0.0035577889 	-0.10760939 	-0.014608631 	0.54482307
0.0035778894 	-0.10760939 	-0.014608631 	0.54482307
0.0035979899 	-0.10124204 	-0.010613256 	0.52925456
0.0036180905 	-0.093022547 	-0.006327956 	0.51477501
0.003638191 	-0.083576717 	-0.0017224052 	0.50121025
0.0036582915 	-0.083576717 	-0.0017224052 	0.50121025
0.003678392 	-0.073553639 	0.0030175337 	0.48829389
0.0036984925 	-0.063506062 	0.0076465553 	0.47549231
0.003718593 	-0.053863561 	0.011953151 	0.46201934
0.0037386935 	-0.044930665 	0.015773676 	0.44695626
0.003758794 	-0.036891994 	0.01896585 	0.42933967
0.0037788945 	-0.036891994 	0.01896585 	0.42933967
0.003798995 	-0.029826746 	0.021404578 	0.40826313
0.0038190955 	-0.023711389 	0.022989394 	0.38298906
0.003839196 	-0.018477721 	0.02365193 	0.35305993
0.0038592965 	-0.014042511 	0.023376374 	0.31835341
0.003879397 	-0.010271384 	0.022189942 	0.27906223
0.0038994975 	-0.0070366829 	0.020198769 	0.23564744
0.003919598 	-0.0042907717 	0.017581625 	0.18868029
0.0039396985 	-0.0020886021 	0.01448065 	0.13859712
0.003959799 	-0.00057277095 	0.010672049 	0.085463428
0.0039798995 	2.8484037e-05 	0.0049711569 	0.029170387
0.004 	2.8484037e-05 	0.0049711569 	0.029170387
