0 	-0.01320782 	0.047788808 	1.0227796
5.5555556e-05 	0.0091711109 	0.04790736 	1.0245329
0.00011111111 	0.014692939 	0.046030938 	1.0266059
0.00016666667 	0.016958669 	0.045099792 	1.0289211
0.00022222222 	0.018182943 	0.044775036 	1.0314461
0.00027777778 	0.018994777 	0.044826529 	1.0341843
0.00033333333 	0.019652394 	0.045070461 	1.0371413
0.00038888889 	0.020292553 	0.045310169 	1.0402754
0.00044444444 	0.020983208 	0.045305565 	1.0434576
0.0005 	0.021727086 	0.044761269 	1.046477
0.00055555556 	0.022452305 	0.043373581 	1.049103
0.00061111111 	0.023043372 	0.040894919 	1.051179
0.00066666667 	0.023413826 	0.037203513 	1.0526692
0.00072222222 	0.02358529 	0.032297614 	1.0536348
0.00077777778 	0.023705286 	0.026254621 	1.0541502
0.00083333333 	0.024026396 	0.019219316 	1.054207
0.00088888889 	0.024795063 	0.011418069 	1.0536644
0.00094444444 	0.025998157 	0.0032668597 	1.0523379
0.001 	0.027695828 	-0.0050080892 	1.0497548
0.0010617199 	0.029588722 	-0.012440181 	1.0457807
0.0011225874 	0.031256041 	-0.018085121 	1.0406739
0.0011826143 	0.032519308 	-0.021919927 	1.034485
0.0012418122 	0.03327915 	-0.024200566 	1.0271125
0.0013001926 	0.033395687 	-0.025231484 	1.0185075
0.0013577668 	0.032738932 	-0.025211258 	1.0089876
0.0014145458 	0.031274978 	-0.024154659 	0.99925349
0.0014705407 	0.029136127 	-0.022009401 	0.9901191
0.0015257623 	0.026561622 	-0.018741276 	0.98221343
0.0015802213 	0.023849584 	-0.014311648 	0.97587973
0.0016339282 	0.021292863 	-0.0087274289 	0.97126811
0.0016868934 	0.019143067 	-0.002077889 	0.968405
0.0017391271 	0.017602378 	0.0054182076 	0.96715322
0.0017906395 	0.016817524 	0.013446073 	0.96707528
0.0018414404 	0.016897531 	0.021641756 	0.96736396
0.0018915398 	0.017868553 	0.029609068 	0.96699715
0.0019409473 	0.019683932 	0.036847261 	0.96509843
0.0019896725 	0.022250922 	0.042596271 	0.9613262
0.0020377248 	0.02522159 	0.046024163 	0.95632098
0.0020851134 	0.027935605 	0.046597012 	0.95187061
0.0021318476 	0.02972438 	0.044531769 	0.9500794
0.0021779364 	0.030339975 	0.040714729 	0.95154879
0.0022233887 	0.030217978 	0.035920855 	0.95452568
0.0022682133 	0.030036727 	0.030452833 	0.95628258
0.0023124189 	0.029929991 	0.024406792 	0.95523738
0.0023560139 	0.029297099 	0.017601196 	0.95162434
0.0023990069 	0.027277256 	0.0093608569 	0.94635071
0.0024414062 	0.02349213 	-0.00077566154 	0.93993381
0.0024832199 	0.018292041 	-0.011962031 	0.9327641
0.0025244562 	0.01270616 	-0.022538509 	0.92564157
0.002565123 	0.0078549532 	-0.031409787 	0.91931549
0.0026052281 	0.0044912603 	-0.038746561 	0.91405942
0.0026447794 	0.0029459348 	-0.045441076 	0.90964044
0.0026837845 	0.0029369101 	-0.052309774 	0.90567959
0.0027222509 	0.0038190998 	-0.05979794 	0.90204459
0.0027601861 	0.0048986157 	-0.067860608 	0.89893515
0.0027975974 	0.0056332233 	-0.075992971 	0.8965991
0.002834492 	0.0057215881 	-0.083444073 	0.89507223
0.0028708772 	0.0050884739 	-0.08961093 	0.89428497
0.0029067598 	0.0037839334 	-0.094388065 	0.89432354
0.0029421469 	0.0019102263 	-0.098111449 	0.89536244
0.0029770452 	-0.00036868844 	-0.10108896 	0.89729713
0.0030114616 	-0.0027805232 	-0.10317401 	0.8996161
0.0030454028 	-0.0049459755 	-0.10378531 	0.90168816
0.0030788752 	-0.006479686 	-0.10236315 	0.90308154
0.0031118853 	-0.0071400438 	-0.098762412 	0.90358737
0.0031444395 	-0.0068812895 	-0.093386987 	0.90306218
0.0031765442 	-0.0057751831 	-0.08702324 	0.90130509
0.0032082055 	-0.0038939267 	-0.080541976 	0.89804616
0.0032394295 	-0.0012388705 	-0.074645995 	0.89293281
0.0032702223 	0.0022398077 	-0.069742599 	0.88539968
0.0033005899 	0.0065134728 	-0.066053224 	0.87445252
0.0033305381 	0.011360123 	-0.063746689 	0.85861503
0.0033600727 	0.016344007 	-0.062988712 	0.8362857
0.0033891994 	0.020845771 	-0.063884883 	0.80665499
0.0034179239 	0.024177858 	-0.066288184 	0.77088793
0.0034462517 	0.025817172 	-0.069542526 	0.73258687
0.0034741882 	0.0256387 	-0.072446701 	0.69670877
0.003501739 	0.023949638 	-0.073612634 	0.66762172
0.0035289093 	0.021306985 	-0.07198653 	0.64775026
0.0035557043 	0.018276672 	-0.067171668 	0.63733354
0.0035821293 	0.015283953 	-0.059443225 	0.63488349
0.0036081894 	0.012576699 	-0.049558533 	0.63783276
0.0036338895 	0.010250701 	-0.03850743 	0.64311889
0.0036592348 	0.0082954418 	-0.027281917 	0.64763141
0.00368423 	0.0066403619 	-0.016700325 	0.64851682
0.00370888 	0.0051938933 	-0.0072963132 	0.6433695
0.0037331896 	0.0038760384 	0.00071348378 	0.63032482
0.0037571635 	0.0026424956 	0.0073808467 	0.60810979
0.0037808063 	0.0015014693 	0.012909865 	0.57609033
0.0038041226 	0.00050065591 	0.017476312 	0.53423057
0.0038271169 	-0.00028682422 	0.021081002 	0.48314649
0.0038497936 	-0.00079385631 	0.023494526 	0.42420376
0.0038721572 	-0.00099641137 	0.024337898 	0.35954385
0.0038942119 	-0.0009295086 	0.023269203 	0.29182784
0.003915962 	-0.00068778823 	0.020184594 	0.22364111
0.0039374118 	-0.00038893366 	0.015341435 	0.1568247
0.0039585653 	-0.00013905422 	0.0093504216 	0.092194575
0.0039794267 	-1.2762356e-05 	0.0030166085 	0.029922352
0.004 	-1.2762356e-05 	0.0030166085 	0.029922352
