0 	0.036739889 	0.026071127 	1.0387324
5.5555556e-05 	-0.039753826 	0.021981258 	1.0468602
0.00011111111 	-0.042770037 	0.017646678 	1.0512948
0.00016666667 	-0.044794901 	0.016051121 	1.0556047
0.00022222222 	-0.046712889 	0.014960521 	1.0589542
0.00027777778 	-0.048391507 	0.013503621 	1.0604936
0.00033333333 	-0.049504249 	0.011402712 	1.0596681
0.00038888889 	-0.049809552 	0.0086638107 	1.0563694
0.00044444444 	-0.049276586 	0.0054313973 	1.0509808
0.0005 	-0.048084742 	0.0019737289 	1.0443124
0.00055555556 	-0.046541577 	-0.0013277432 	1.0374071
0.00061111111 	-0.044981638 	-0.0040565171 	1.0312519
0.00066666667 	-0.043679657 	-0.0058645311 	1.0265004
0.00072222222 	-0.04279798 	-0.0065330809 	1.0232943
0.00077777778 	-0.042351887 	-0.0059809092 	1.0212891
0.00083333333 	-0.042197412 	-0.0042775947 	1.019895
0.00088888889 	-0.042070501 	-0.0016891246 	1.01856
0.00094444444 	-0.041678102 	0.0012642588 	1.0168738
0.001 	-0.040735411 	0.0040681564 	1.0143513
0.0010617451 	-0.039161932 	0.0058771848 	1.0104655
0.0011226367 	-0.037101675 	0.0061799552 	1.0048936
0.0011826866 	-0.034861062 	0.0055259185 	0.99757136
0.0012419064 	-0.032640017 	0.0049475373 	0.98881586
0.0013003077 	-0.030469051 	0.0055164093 	0.97928368
0.0013579017 	-0.028204144 	0.0078839251 	0.96970444
0.0014146996 	-0.025591103 	0.012085327 	0.96046244
0.0014707124 	-0.022467437 	0.017584397 	0.95121355
0.0015259509 	-0.019034231 	0.023492218 	0.9407547
0.001580426 	-0.01599946 	0.02896432 	0.92726965
0.001634148 	-0.014387945 	0.033692957 	0.90898114
0.0016871274 	-0.014990211 	0.038134891 	0.88517124
0.0017393745 	-0.017837569 	0.043019339 	0.85728616
0.0017908994 	-0.022195825 	0.04839478 	0.82930059
0.0018417121 	-0.02711621 	0.05309681 	0.80600849
0.0018918224 	-0.032000307 	0.05569521 	0.78989559
0.0019412401 	-0.036552919 	0.055877887 	0.78000987
0.0019899746 	-0.040594835 	0.054543849 	0.77385765
0.0020380356 	-0.043966349 	0.052798964 	0.76944033
0.0020854322 	-0.046581321 	0.051264389 	0.76582326
0.0021321736 	-0.048455643 	0.050027345 	0.76285266
0.002178269 	-0.049719475 	0.048977663 	0.76062259
0.0022237272 	-0.050605872 	0.048033773 	0.75910598
0.002268557 	-0.051331856 	0.047318351 	0.75795368
0.0023127672 	-0.052024655 	0.047012206 	0.75658361
0.0023563662 	-0.052591388 	0.047004148 	0.75456704
0.0023993626 	-0.052894037 	0.046687862 	0.75202961
0.0024417647 	-0.052646074 	0.04526782 	0.74961783
0.0024835806 	-0.051707203 	0.0420944 	0.74806809
0.0025248186 	-0.0502498 	0.037093505 	0.74780133
0.0025654865 	-0.048335732 	0.030835781 	0.74887169
0.0026055923 	-0.046062576 	0.024149794 	0.75108468
0.0026451437 	-0.04364026 	0.017629282 	0.75425418
0.0026841484 	-0.041125209 	0.011421572 	0.75826749
0.002722614 	-0.038538625 	0.0053746244 	0.76308075
0.0027605478 	-0.035832341 	-0.00066943525 	0.76858582
0.0027979573 	-0.032952105 	-0.0066819055 	0.77461659
0.0028348498 	-0.029901698 	-0.012406898 	0.78097844
0.0028712322 	-0.026642787 	-0.017421508 	0.78742651
0.0029071118 	-0.023217365 	-0.021292223 	0.79365349
0.0029424953 	-0.019780483 	-0.023636145 	0.79923461
0.0029773898 	-0.016522685 	-0.02420012 	0.80365271
0.003011802 	-0.013655852 	-0.022912151 	0.80641536
0.0030457385 	-0.011402882 	-0.019916238 	0.80727676
0.0030792059 	-0.009951025 	-0.01558013 	0.80643473
0.0031122107 	-0.009381545 	-0.010374409 	0.80443741
0.0031447592 	-0.0095663178 	-0.0046706901 	0.80157109
0.0031768579 	-0.010084613 	0.0013485705 	0.79689391
0.0032085129 	-0.010281208 	0.0074949463 	0.78770957
0.0032397303 	-0.0095235199 	0.013167295 	0.77040399
0.0032705162 	-0.0076458631 	0.017137082 	0.74269491
0.0033008765 	-0.0052675696 	0.017886361 	0.70592804
0.0033308172 	-0.0036239383 	0.014360173 	0.66543048
0.0033603441 	-0.003922624 	0.0066249306 	0.62820092
0.0033894627 	-0.0066650528 	-0.0040816836 	0.59934551
0.0034181789 	-0.011430546 	-0.015966067 	0.57999565
0.0034464982 	-0.017223295 	-0.027458937 	0.56798747
0.003474426 	-0.022891744 	-0.037620047 	0.55998448
0.0035019678 	-0.027444453 	-0.046057937 	0.55318086
0.0035291288 	-0.030261688 	-0.052583991 	0.5458854
0.0035559144 	-0.031077359 	-0.056982374 	0.53732239
0.0035823298 	-0.029919814 	-0.059012598 	0.52727203
0.0036083801 	-0.027046017 	-0.058532465 	0.51578738
0.0036340702 	-0.022872689 	-0.055621181 	0.5029927
0.0036594053 	-0.017906434 	-0.050641396 	0.48893952
0.0036843901 	-0.012677181 	-0.044220513 	0.47353867
0.0037090296 	-0.007678257 	-0.037173268 	0.45658188
0.0037333285 	-0.0033202999 	-0.03034081 	0.43780513
0.0037572915 	9.9511955e-05 	-0.024406621 	0.41690836
0.0037809233 	0.0024647082 	-0.019732222 	0.39349739
0.0038042285 	0.0038183235 	-0.016312651 	0.36698615
0.0038272115 	0.0042750756 	-0.013849933 	0.33659955
0.0038498768 	0.0040094596 	-0.011915895 	0.30155938
0.0038722288 	0.003251208 	-0.010137461 	0.26143325
0.0038942718 	0.0022699811 	-0.0083218149 	0.21655008
0.0039160102 	0.001323234 	-0.0064604338 	0.16823139
0.003937448 	0.00058956583 	-0.0046015686 	0.11852548
0.0039585896 	0.00014280891 	-0.0027139705 	0.069478889
0.0039794389 	-8.7122979e-06 	-0.00076832951 	0.022445969
0.004 	-9.6252121e-06 	-0.0018700513 	0.021509919
