0 	-0.0051738487 	-0.01400009 	1.0484859
2.0100503e-05 	-0.013742131 	0.0080644749 	1.0513826
4.0201005e-05 	-0.013742131 	0.0080644749 	1.0513826
6.0301508e-05 	-0.0072652539 	0.015826415 	1.0546653
8.040201e-05 	-0.0072652539 	0.015826415 	1.0546653
0.00010050251 	-0.0072652539 	0.015826415 	1.0546653
0.00012060302 	-0.003653465 	0.018695564 	1.0580785
0.00014070352 	-0.003653465 	0.018695564 	1.0580785
0.00016080402 	-0.003653465 	0.018695564 	1.0580785
0.00018090452 	-0.0010850356 	0.02048948 	1.0613597
0.00020100503 	-0.0010850356 	0.02048948 	1.0613597
0.00022110553 	-0.0010850356 	0.02048948 	1.0613597
0.00024120603 	0.00088651786 	0.021523533 	1.0642829
0.00026130653 	0.00088651786 	0.021523533 	1.0642829
0.00028140704 	0.0023935725 	0.021795316 	1.066707
0.00030150754 	0.0023935725 	0.021795316 	1.066707
0.00032160804 	0.0023935725 	0.021795316 	1.066707
0.00034170854 	0.0035225785 	0.021318987 	1.0686021
0.00036180905 	0.0035225785 	0.021318987 	1.0686021
0.00038190955 	0.0035225785 	0.021318987 	1.0686021
0.00040201005 	0.0043773027 	0.0201876 	1.0700358
0.00042211055 	0.0043773027 	0.0201876 	1.0700358
0.00044221106 	0.0043773027 	0.0201876 	1.0700358
0.00046231156 	0.005091794 	0.018557398 	1.0711293
0.00048241206 	0.005091794 	0.018557398 	1.0711293
0.00050251256 	0.0058150467 	0.016642533 	1.0719949
0.00052261307 	0.0058150467 	0.016642533 	1.0719949
0.00054271357 	0.0058150467 	0.016642533 	1.0719949
0.00056281407 	0.0067044732 	0.01467927 	1.072686
0.00058291457 	0.0067044732 	0.01467927 	1.072686
0.00060301508 	0.0067044732 	0.01467927 	1.072686
0.00062311558 	0.0079036763 	0.012894078 	1.0731813
0.00064321608 	0.0079036763 	0.012894078 	1.0731813
0.00066331658 	0.0079036763 	0.012894078 	1.0731813
0.00068341709 	0.0095219217 	0.011468104 	1.0734065
0.00070351759 	0.0095219217 	0.011468104 	1.0734065
0.00072361809 	0.011629255 	0.010509945 	1.0732669
0.00074371859 	0.011629255 	0.010509945 	1.0732669
0.0007638191 	0.011629255 	0.010509945 	1.0732669
0.0007839196 	0.014268831 	0.010055737 	1.0726653
0.0008040201 	0.014268831 	0.010055737 	1.0726653
0.0008241206 	0.014268831 	0.010055737 	1.0726653
0.00084422111 	0.017437905 	0.010052038 	1.0715266
0.00086432161 	0.017437905 	0.010052038 	1.0715266
0.00088442211 	0.017437905 	0.010052038 	1.0715266
0.00090452261 	0.021203361 	0.010415609 	1.0697961
0.00092462312 	0.021203361 	0.010415609 	1.0697961
0.00094472362 	0.025386335 	0.010892822 	1.0674703
0.00096482412 	0.021102954 	0.0072828531 	1.0717574
0.00098492462 	0.021102954 	0.0072828531 	1.0717574
0.0010050251 	0.025508754 	0.0075138095 	1.0684519
0.0010251256 	0.030424385 	0.011626514 	1.0642506
0.0010452261 	0.030424385 	0.011626514 	1.0642506
0.0010653266 	0.036067638 	0.012357299 	1.0600748
0.0010854271 	0.036067638 	0.012357299 	1.0600748
0.0011055276 	0.036067638 	0.012357299 	1.0600748
0.0011256281 	0.041793733 	0.012981214 	1.0550421
0.0011457286 	0.041793733 	0.012981214 	1.0550421
0.0011658291 	0.041793733 	0.012981214 	1.0550421
0.0011859296 	0.047375496 	0.013727397 	1.0489758
0.0012060302 	0.047375496 	0.013727397 	1.0489758
0.0012261307 	0.047375496 	0.013727397 	1.0489758
0.0012462312 	0.052600133 	0.015038725 	1.0417806
0.0012663317 	0.052600133 	0.015038725 	1.0417806
0.0012864322 	0.052600133 	0.015038725 	1.0417806
0.0013065327 	0.057290928 	0.017397017 	1.0336027
0.0013266332 	0.057290928 	0.017397017 	1.0336027
0.0013467337 	0.057290928 	0.017397017 	1.0336027
0.0013668342 	0.061328042 	0.021124795 	1.0248837
0.0013869347 	0.061328042 	0.021124795 	1.0248837
0.0014070352 	0.061328042 	0.021124795 	1.0248837
0.0014271357 	0.064700975 	0.026169421 	1.016207
0.0014472362 	0.064700975 	0.026169421 	1.016207
0.0014673367 	0.064700975 	0.026169421 	1.016207
0.0014874372 	0.067501832 	0.032014341 	1.0080161
0.0015075377 	0.067501832 	0.032014341 	1.0080161
0.0015276382 	0.069859252 	0.037783245 	1.0003993
0.0015477387 	0.069859252 	0.037783245 	1.0003993
0.0015678392 	0.069859252 	0.037783245 	1.0003993
0.0015879397 	0.07184013 	0.04250715 	0.99312799
0.0016080402 	0.07184013 	0.04250715 	0.99312799
0.0016281407 	0.07184013 	0.04250715 	0.99312799
0.0016482412 	0.073402604 	0.045429278 	0.98588711
0.0016683417 	0.073402604 	0.045429278 	0.98588711
0.0016884422 	0.074423735 	0.046189452 	0.97852705
0.0017085427 	0.074423735 	0.046189452 	0.97852705
0.0017286432 	0.074423735 	0.046189452 	0.97852705
0.0017487437 	0.074776482 	0.044814798 	0.97119736
0.0017688442 	0.074776482 	0.044814798 	0.97119736
0.0017889447 	0.074776482 	0.044814798 	0.97119736
0.0018090452 	0.074399731 	0.041545303 	0.96432916
0.0018291457 	0.074399731 	0.041545303 	0.96432916
0.0018492462 	0.073304677 	0.036653554 	0.95849959
0.0018693467 	0.073304677 	0.036653554 	0.95849959
0.0018894472 	0.073304677 	0.036653554 	0.95849959
0.0019095477 	0.071547774 	0.030397126 	0.95427115
0.0019296482 	0.071547774 	0.030397126 	0.95427115
0.0019497487 	0.069175015 	0.02305086 	0.95203869
0.0019698492 	0.069175015 	0.02305086 	0.95203869
0.0019899497 	0.066167745 	0.015050797 	0.95192084
0.0020100503 	0.066167745 	0.015050797 	0.95192084
0.0020301508 	0.066167745 	0.015050797 	0.95192084
0.0020502513 	0.062391858 	0.0070896045 	0.95367526
0.0020703518 	0.062391858 	0.0070896045 	0.95367526
0.0020904523 	0.057626454 	0.00017742497 	0.95673867
0.0021105528 	0.057626454 	0.00017742497 	0.95673867
0.0021306533 	0.057626454 	0.00017742497 	0.95673867
0.0021507538 	0.051705108 	-0.0043918436 	0.96026292
0.0021708543 	0.051705108 	-0.0043918436 	0.96026292
0.0021909548 	0.044635137 	-0.0054184793 	0.96337676
0.0022110553 	0.044635137 	-0.0054184793 	0.96337676
0.0022311558 	0.036764889 	-0.0026270326 	0.96569958
0.0022512563 	0.036764889 	-0.0026270326 	0.96569958
0.0022713568 	0.028901496 	0.0026298156 	0.96778809
0.0022914573 	0.028901496 	0.0026298156 	0.96778809
0.0023115578 	0.028901496 	0.0026298156 	0.96778809
0.0023316583 	0.02193944 	0.007801527 	0.97090844
0.0023517588 	0.02193944 	0.007801527 	0.97090844
0.0023718593 	0.016518531 	0.010504204 	0.97627601
0.0023919598 	0.016518531 	0.010504204 	0.97627601
0.0024120603 	0.012752904 	0.0095467925 	0.98444944
0.0024321608 	0.012752904 	0.0095467925 	0.98444944
0.0024522613 	0.010122328 	0.0052450422 	0.99524135
0.0024723618 	0.010122328 	0.0052450422 	0.99524135
0.0024924623 	0.0079886817 	-0.0011088416 	1.0079585
0.0025125628 	0.0079886817 	-0.0011088416 	1.0079585
0.0025326633 	0.0060013576 	-0.0081453516 	1.0216207
0.0025527638 	0.0060013576 	-0.0081453516 	1.0216207
0.0025728643 	0.0041417321 	-0.015088808 	1.0350951
0.0025929648 	0.0041417321 	-0.015088808 	1.0350951
0.0026130653 	0.002633802 	-0.021855326 	1.0471942
0.0026331658 	0.002633802 	-0.021855326 	1.0471942
0.0026532663 	0.0017460289 	-0.028720785 	1.0568651
0.0026733668 	0.0017460289 	-0.028720785 	1.0568651
0.0026934673 	0.0016905643 	-0.035969184 	1.0633321
0.0027135678 	0.0016905643 	-0.035969184 	1.0633321
0.0027336683 	0.0026007265 	-0.043672067 	1.0661579
0.0027537688 	0.0026007265 	-0.043672067 	1.0661579
0.0027738693 	0.0044842254 	-0.051622841 	1.0652374
0.0027939698 	0.0044842254 	-0.051622841 	1.0652374
0.0028140704 	0.0072219909 	-0.059413359 	1.0607705
0.0028341709 	0.0072219909 	-0.059413359 	1.0607705
0.0028542714 	0.010582251 	-0.066523903 	1.0532384
0.0028743719 	0.014219411 	-0.072427083 	1.0433894
0.0028944724 	0.014219411 	-0.072427083 	1.0433894
0.0029145729 	0.017713255 	-0.076676188 	1.032187
0.0029346734 	0.017713255 	-0.076676188 	1.032187
0.0029547739 	0.020642569 	-0.078957496 	1.0207225
0.0029748744 	0.020642569 	-0.078957496 	1.0207225
0.0029949749 	0.022659512 	-0.079102039 	1.0100728
0.0030150754 	0.023542357 	-0.077086844 	1.0011125
0.0030351759 	0.023542357 	-0.077086844 	1.0011125
0.0030552764 	0.023214241 	-0.07307523 	0.99431001
0.0030753769 	0.023214241 	-0.07307523 	0.99431001
0.0030954774 	0.021730588 	-0.067482776 	0.98959485
0.0031155779 	0.01920705 	-0.060947262 	0.98636091
0.0031356784 	0.01920705 	-0.060947262 	0.98636091
0.0031557789 	0.015796149 	-0.054225265 	0.98368354
0.0031758794 	0.015796149 	-0.054225265 	0.98368354
0.0031959799 	0.011653133 	-0.047964311 	0.98062084
0.0032160804 	0.0069525654 	-0.042500917 	0.97639755
0.0032361809 	0.0069525654 	-0.042500917 	0.97639755
0.0032562814 	0.0019048244 	-0.037883488 	0.97035299
0.0032763819 	-0.003059818 	-0.03410731 	0.96180087
0.0032964824 	-0.003059818 	-0.03410731 	0.96180087
0.0033165829 	-0.0073140742 	-0.031368393 	0.94994743
0.0033366834 	-0.010343325 	-0.030094846 	0.9340076
0.0033567839 	-0.010343325 	-0.030094846 	0.9340076
0.0033768844 	-0.011829929 	-0.030796607 	0.91351896
0.0033969849 	-0.011750706 	-0.03373842 	0.8885886
0.0034170854 	-0.011750706 	-0.03373842 	0.8885886
0.0034371859 	-0.010385047 	-0.038655693 	0.86014159
0.0034572864 	-0.0083261152 	-0.044607575 	0.82979214
0.0034773869 	-0.00623795 	-0.050068211 	0.79951081
0.0034974874 	-0.00623795 	-0.050068211 	0.79951081
0.0035175879 	-0.004653343 	-0.053321941 	0.77108107
0.0035376884 	-0.0038959938 	-0.053068973 	0.74549884
0.0035577889 	-0.0040246441 	-0.048957567 	0.72255486
0.0035778894 	-0.0040246441 	-0.048957567 	0.72255486
0.0035979899 	-0.0048777707 	-0.041694471 	0.70079185
0.0036180905 	-0.0061523161 	-0.03265389 	0.67796096
0.003638191 	-0.0074718745 	-0.023262527 	0.65186444
0.0036582915 	-0.0074718745 	-0.023262527 	0.65186444
0.003678392 	-0.0084683627 	-0.014576991 	0.6211724
0.0036984925 	-0.0088933275 	-0.0072300199 	0.58579971
0.003718593 	-0.00868848 	-0.0015626361 	0.54670841
0.0037386935 	-0.0079841484 	0.0023106076 	0.50533714
0.003758794 	-0.0069636739 	0.0045068297 	0.46297677
0.0037788945 	-0.0069636739 	0.0045068297 	0.46297677
0.003798995 	-0.0057966738 	0.0053370059 	0.42039161
0.0038190955 	-0.0046401599 	0.0051731349 	0.37778839
0.003839196 	-0.0035915089 	0.0043378075 	0.33503859
0.0038592965 	-0.0026890563 	0.0030574879 	0.2919108
0.003879397 	-0.0019441263 	0.0014845882 	0.24820028
0.0038994975 	-0.001356297 	-0.00023854901 	0.20377087
0.003919598 	-0.0008916427 	-0.0019009199 	0.15858888
0.0039396985 	-0.00051480155 	-0.0031415147 	0.11283268
0.003959799 	-0.00022287396 	-0.0034029328 	0.067010199
0.0039798995 	-3.4173928e-05 	-0.0019603435 	0.021936191
0.004 	-3.4173928e-05 	-0.0019603435 	0.021936191
