0 	0.013988762 	-0.027977917 	1.0862923
5.5555556e-05 	0.023314794 	-0.014478954 	1.0853055
0.00011111111 	0.022674078 	-0.0068123177 	1.0833115
0.00016666667 	0.020553103 	-0.0010172541 	1.0799496
0.00022222222 	0.017967466 	0.0029896809 	1.0747266
0.00027777778 	0.014948496 	0.0041236259 	1.0671367
0.00033333333 	0.011230791 	0.0013962286 	1.0572136
0.00038888889 	0.0066193002 	-0.0049455986 	1.0461145
0.00044444444 	0.0012914828 	-0.013119838 	1.0358417
0.0005 	-0.0041374467 	-0.020747864 	1.0281775
0.00055555556 	-0.0089288006 	-0.026152261 	1.0239142
0.00061111111 	-0.012584838 	-0.028918851 	1.0228304
0.00066666667 	-0.014907898 	-0.029534834 	1.0241129
0.00072222222 	-0.015869453 	-0.028683029 	1.0267752
0.00077777778 	-0.015601457 	-0.026811803 	1.0298675
0.00083333333 	-0.01445513 	-0.024148137 	1.032513
0.00088888889 	-0.013030928 	-0.020870002 	1.0340028
0.00094444444 	-0.011926169 	-0.017384176 	1.033981
0.001 	-0.011300729 	-0.014264979 	1.0324425
0.0010617199 	-0.011212663 	-0.012605924 	1.0296008
0.0011225874 	-0.011287644 	-0.013359844 	1.0263136
0.0011826143 	-0.011094951 	-0.016460817 	1.0236295
0.0012418122 	-0.010558137 	-0.021492592 	1.0223195
0.0013001926 	-0.0099046172 	-0.027936852 	1.0221514
0.0013577668 	-0.0093837432 	-0.035071952 	1.0215126
0.0014145458 	-0.0091178162 	-0.042003739 	1.017914
0.0014705407 	-0.0091177491 	-0.047985751 	1.0093061
0.0015257623 	-0.0092917894 	-0.052492544 	0.99520439
0.0015802213 	-0.0094336687 	-0.055221563 	0.97720837
0.0016339282 	-0.0092341138 	-0.056192358 	0.95833564
0.0016868934 	-0.0084420135 	-0.055754928 	0.94136596
0.0017391271 	-0.0069491061 	-0.054425643 	0.92748429
0.0017906395 	-0.0047234262 	-0.052699213 	0.91628262
0.0018414404 	-0.0017072579 	-0.050940497 	0.9068529
0.0018915398 	0.0021593427 	-0.049249209 	0.89865146
0.0019409473 	0.006727272 	-0.047411465 	0.8915498
0.0019896725 	0.011576222 	-0.045048127 	0.88546557
0.0020377248 	0.016265228 	-0.041855043 	0.88010701
0.0020851134 	0.020259727 	-0.037738747 	0.87512957
0.0021318476 	0.023234157 	-0.032778241 	0.87031473
0.0021779364 	0.02510297 	-0.027168044 	0.86566779
0.0022233887 	0.025792189 	-0.021109985 	0.8612732
0.0022682133 	0.025428124 	-0.01487292 	0.85726037
0.0023124189 	0.024220761 	-0.0086263837 	0.8538575
0.0023560139 	0.022358056 	-0.0024487622 	0.85147
0.0023990069 	0.019956215 	0.0036639795 	0.8506163
0.0024414062 	0.017083801 	0.0096872522 	0.85187787
0.0024832199 	0.013815465 	0.01545524 	0.85560999
0.0025244562 	0.010279086 	0.020727968 	0.86179362
0.002565123 	0.0066770115 	0.02521657 	0.86989533
0.0026052281 	0.0032659481 	0.028682787 	0.87891784
0.0026447794 	0.00030177269 	0.031004509 	0.88764062
0.0026837845 	-0.0019973523 	0.032208441 	0.89493734
0.0027222509 	-0.0034663457 	0.032497748 	0.90004789
0.0027601861 	-0.0040335932 	0.032247574 	0.90266064
0.0027975974 	-0.0037607284 	0.031906684 	0.90288063
0.002834492 	-0.0028697574 	0.031874239 	0.90115201
0.0028708772 	-0.0016908953 	0.032358185 	0.89815631
0.0029067598 	-0.00054985969 	0.033340666 	0.89462967
0.0029421469 	0.00028250226 	0.034635892 	0.89120058
0.0029770452 	0.00063943835 	0.035984489 	0.88831144
0.0030114616 	0.00044951578 	0.037106481 	0.88624963
0.0030454028 	-0.00027289602 	0.037762597 	0.88519891
0.0030788752 	-0.0014393951 	0.037801392 	0.88526369
0.0031118853 	-0.0029075294 	0.037203647 	0.88643754
0.0031444395 	-0.0045064807 	0.036110292 	0.8885303
0.0031765442 	-0.0060657774 	0.03476755 	0.89109465
0.0032082055 	-0.0074468337 	0.033410718 	0.89342531
0.0032394295 	-0.0085779181 	0.032163962 	0.89470064
0.0032702223 	-0.0094869106 	0.031047432 	0.89429159
0.0033005899 	-0.010329009 	0.030136038 	0.89213067
0.0033305381 	-0.011367413 	0.029779491 	0.88884022
0.0033600727 	-0.012938664 	0.030688662 	0.88530704
0.0033891994 	-0.015272076 	0.033712771 	0.88160676
0.0034179239 	-0.018241878 	0.039349271 	0.87591223
0.0034462517 	-0.021315021 	0.047259894 	0.8643205
0.0034741882 	-0.023707013 	0.056139463 	0.84215586
0.003501739 	-0.024690665 	0.06410704 	0.80618443
0.0035289093 	-0.023891424 	0.069433345 	0.75635001
0.0035557043 	-0.021408604 	0.071156889 	0.6959817
0.0035821293 	-0.017742428 	0.069262701 	0.63059687
0.0036081894 	-0.013605787 	0.064467267 	0.56614901
0.0036338895 	-0.0096949373 	0.05784525 	0.50743736
0.0036592348 	-0.0064947227 	0.05047355 	0.45712106
0.00368423 	-0.0041946412 	0.043187563 	0.41558031
0.00370888 	-0.0027311754 	0.036494033 	0.38149688
0.0037331896 	-0.0019004883 	0.030612716 	0.35272034
0.0037571635 	-0.0014685334 	0.025575367 	0.32701336
0.0037808063 	-0.0012409704 	0.021312767 	0.30249422
0.0038041226 	-0.0010885566 	0.017716133 	0.27779302
0.0038271169 	-0.00094293421 	0.014668401 	0.2520238
0.0038497936 	-0.00077993272 	0.012058834 	0.22467663
0.0038721572 	-0.00060158323 	0.0097893031 	0.19549822
0.0038942119 	-0.00042208062 	0.0077771677 	0.1643925
0.003915962 	-0.00025888487 	0.0059556982 	0.13134759
0.0039374118 	-0.00012798104 	0.0042702559 	0.096382323
0.0039585653 	-4.101826e-05 	0.0026616885 	0.059501243
0.0039794267 	-4.1107004e-06 	0.0010126404 	0.02064414
0.004 	2.227498e-05 	0.00039916838 	0.017659791
