0 	-0.010128444 	0.0065318744 	1.0477527
2.0100503e-05 	0.0060135218 	0.010979152 	1.0443312
4.0201005e-05 	0.0060135218 	0.010979152 	1.0443312
6.0301508e-05 	0.01018635 	0.0090080017 	1.0423535
8.040201e-05 	0.01018635 	0.0090080017 	1.0423535
0.00010050251 	0.01018635 	0.0090080017 	1.0423535
0.00012060302 	0.011443915 	0.010710732 	1.0417321
0.00014070352 	0.011443915 	0.010710732 	1.0417321
0.00016080402 	0.011443915 	0.010710732 	1.0417321
0.00018090452 	0.012542113 	0.014290268 	1.0423706
0.00020100503 	0.012542113 	0.014290268 	1.0423706
0.00022110553 	0.012542113 	0.014290268 	1.0423706
0.00024120603 	0.013720717 	0.019142605 	1.0441822
0.00026130653 	0.013720717 	0.019142605 	1.0441822
0.00028140704 	0.014920908 	0.024734188 	1.04705
0.00030150754 	0.014920908 	0.024734188 	1.04705
0.00032160804 	0.014920908 	0.024734188 	1.04705
0.00034170854 	0.015978641 	0.030464741 	1.0507971
0.00036180905 	0.015978641 	0.030464741 	1.0507971
0.00038190955 	0.015978641 	0.030464741 	1.0507971
0.00040201005 	0.016744817 	0.03565706 	1.0551193
0.00042211055 	0.016744817 	0.03565706 	1.0551193
0.00044221106 	0.016744817 	0.03565706 	1.0551193
0.00046231156 	0.017303912 	0.039678602 	1.0595611
0.00048241206 	0.017303912 	0.039678602 	1.0595611
0.00050251256 	0.017892404 	0.042007108 	1.0635251
0.00052261307 	0.017892404 	0.042007108 	1.0635251
0.00054271357 	0.017892404 	0.042007108 	1.0635251
0.00056281407 	0.018844338 	0.042421276 	1.0664007
0.00058291457 	0.018844338 	0.042421276 	1.0664007
0.00060301508 	0.018844338 	0.042421276 	1.0664007
0.00062311558 	0.020465621 	0.041174561 	1.0677732
0.00064321608 	0.020465621 	0.041174561 	1.0677732
0.00066331658 	0.020465621 	0.041174561 	1.0677732
0.00068341709 	0.022812823 	0.038760801 	1.067581
0.00070351759 	0.022812823 	0.038760801 	1.067581
0.00072361809 	0.025665832 	0.035766254 	1.0661405
0.00074371859 	0.025665832 	0.035766254 	1.0661405
0.0007638191 	0.025665832 	0.035766254 	1.0661405
0.0007839196 	0.028539034 	0.032568792 	1.0640156
0.0008040201 	0.028539034 	0.032568792 	1.0640156
0.0008241206 	0.028539034 	0.032568792 	1.0640156
0.00084422111 	0.030897577 	0.029215303 	1.061835
0.00086432161 	0.030897577 	0.029215303 	1.061835
0.00088442211 	0.030897577 	0.029215303 	1.061835
0.00090452261 	0.032275139 	0.025416273 	1.0600465
0.00092462312 	0.032275139 	0.025416273 	1.0600465
0.00094472362 	0.032587121 	0.021031635 	1.058796
0.00096482412 	0.032587121 	0.021031635 	1.058796
0.00098492462 	0.032587121 	0.021031635 	1.058796
0.0010050251 	0.031202379 	0.015216608 	1.0582868
0.0010251256 	0.031202379 	0.015216608 	1.0582868
0.0010452261 	0.031202379 	0.015216608 	1.0582868
0.0010653266 	0.028236206 	0.0078221716 	1.0587109
0.0010854271 	0.028236206 	0.0078221716 	1.0587109
0.0011055276 	0.028236206 	0.0078221716 	1.0587109
0.0011256281 	0.023955513 	0.00018796826 	1.0604377
0.0011457286 	0.028705788 	-0.0050181746 	1.0574469
0.0011658291 	0.028705788 	-0.0050181746 	1.0574469
0.0011859296 	0.023899388 	-0.011676857 	1.0627038
0.0012060302 	0.019020936 	-0.0067485064 	1.0636959
0.0012261307 	0.019020936 	-0.0067485064 	1.0636959
0.0012462312 	0.014090285 	-0.01223191 	1.0682967
0.0012663317 	0.014090285 	-0.01223191 	1.0682967
0.0012864322 	0.014090285 	-0.01223191 	1.0682967
0.0013065327 	0.0095788671 	-0.01586959 	1.0737513
0.0013266332 	0.0095788671 	-0.01586959 	1.0737513
0.0013467337 	0.0095788671 	-0.01586959 	1.0737513
0.0013668342 	0.0057286553 	-0.0175868 	1.0796595
0.0013869347 	0.0057286553 	-0.0175868 	1.0796595
0.0014070352 	0.0057286553 	-0.0175868 	1.0796595
0.0014271357 	0.0026229543 	-0.017532917 	1.085844
0.0014472362 	0.0026229543 	-0.017532917 	1.085844
0.0014673367 	0.0026229543 	-0.017532917 	1.085844
0.0014874372 	0.00021020223 	-0.015971668 	1.09225
0.0015075377 	0.00021020223 	-0.015971668 	1.09225
0.0015276382 	-0.0016363057 	-0.013195403 	1.0987798
0.0015477387 	-0.0016363057 	-0.013195403 	1.0987798
0.0015678392 	-0.0016363057 	-0.013195403 	1.0987798
0.0015879397 	-0.0031541318 	-0.0094375017 	1.1051819
0.0016080402 	-0.0031541318 	-0.0094375017 	1.1051819
0.0016281407 	-0.004296243 	-0.014164746 	1.1049984
0.0016482412 	-0.0047370204 	-0.0048668452 	1.1110283
0.0016683417 	-0.0047370204 	-0.0048668452 	1.1110283
0.0016884422 	-0.0067371729 	0.00038773485 	1.1156155
0.0017085427 	-0.0067371729 	0.00038773485 	1.1156155
0.0017286432 	-0.0067371729 	0.00038773485 	1.1156155
0.0017487437 	-0.0092680907 	0.0059053191 	1.1177847
0.0017688442 	-0.0092680907 	0.0059053191 	1.1177847
0.0017889447 	-0.0092680907 	0.0059053191 	1.1177847
0.0018090452 	-0.012195978 	0.010748028 	1.1159968
0.0018291457 	-0.012195978 	0.010748028 	1.1159968
0.0018492462 	-0.015081734 	0.013372429 	1.1089395
0.0018693467 	-0.015081734 	0.013372429 	1.1089395
0.0018894472 	-0.015081734 	0.013372429 	1.1089395
0.0019095477 	-0.01729759 	0.012372718 	1.0963974
0.0019296482 	-0.01729759 	0.012372718 	1.0963974
0.0019497487 	-0.018223769 	0.0075310889 	1.0794595
0.0019698492 	-0.018223769 	0.0075310889 	1.0794595
0.0019899497 	-0.017397314 	0.0001803402 	1.0598589
0.0020100503 	-0.017397314 	0.0001803402 	1.0598589
0.0020301508 	-0.017397314 	0.0001803402 	1.0598589
0.0020502513 	-0.014485455 	-0.00756992 	1.0392557
0.0020703518 	-0.014485455 	-0.00756992 	1.0392557
0.0020904523 	-0.0095463192 	-0.014077488 	1.0190767
0.0021105528 	-0.0095463192 	-0.014077488 	1.0190767
0.0021306533 	-0.0095463192 	-0.014077488 	1.0190767
0.0021507538 	-0.0031956865 	-0.018885319 	1.0005469
0.0021708543 	-0.0031956865 	-0.018885319 	1.0005469
0.0021909548 	0.0036570317 	-0.02257878 	0.9845595
0.0022110553 	0.0036570317 	-0.02257878 	0.9845595
0.0022311558 	0.010091462 	-0.025971286 	0.97148439
0.0022512563 	0.010091462 	-0.025971286 	0.97148439
0.0022713568 	0.015409511 	-0.029603826 	0.96125921
0.0022914573 	0.015409511 	-0.029603826 	0.96125921
0.0023115578 	0.015409511 	-0.029603826 	0.96125921
0.0023316583 	0.019170513 	-0.033568929 	0.95369732
0.0023517588 	0.019170513 	-0.033568929 	0.95369732
0.0023718593 	0.021207422 	-0.037619149 	0.94868451
0.0023919598 	0.021207422 	-0.037619149 	0.94868451
0.0024120603 	0.02161131 	-0.041315428 	0.94612561
0.0024321608 	0.02161131 	-0.041315428 	0.94612561
0.0024522613 	0.020739264 	-0.044131433 	0.94573229
0.0024723618 	0.020739264 	-0.044131433 	0.94573229
0.0024924623 	0.019268889 	-0.045495767 	0.94682694
0.0025125628 	0.019268889 	-0.045495767 	0.94682694
0.0025326633 	0.018006068 	-0.044867007 	0.94828129
0.0025527638 	0.018006068 	-0.044867007 	0.94828129
0.0025728643 	0.017639013 	-0.041893486 	0.94863254
0.0025929648 	0.017639013 	-0.041893486 	0.94863254
0.0026130653 	0.01851695 	-0.036625313 	0.94637201
0.0026331658 	0.01851695 	-0.036625313 	0.94637201
0.0026532663 	0.020472649 	-0.029664027 	0.94024781
0.0026733668 	0.020472649 	-0.029664027 	0.94024781
0.0026934673 	0.022855196 	-0.022113009 	0.92957662
0.0027135678 	0.022855196 	-0.022113009 	0.92957662
0.0027336683 	0.024758289 	-0.0152461 	0.91460235
0.0027537688 	0.024758289 	-0.0152461 	0.91460235
0.0027738693 	0.025384085 	-0.010011405 	0.8966476
0.0027939698 	0.025384085 	-0.010011405 	0.8966476
0.0028140704 	0.024399153 	-0.0066344972 	0.87779053
0.0028341709 	0.024399153 	-0.0066344972 	0.87779053
0.0028542714 	0.022046177 	-0.0047248604 	0.85995381
0.0028743719 	0.018788229 	-0.0037063076 	0.84405714
0.0028944724 	0.018788229 	-0.0037063076 	0.84405714
0.0029145729 	0.015096962 	-0.0031807861 	0.83006001
0.0029346734 	0.015096962 	-0.0031807861 	0.83006001
0.0029547739 	0.011289577 	-0.002993218 	0.81750618
0.0029748744 	0.011289577 	-0.002993218 	0.81750618
0.0029949749 	0.0073834239 	-0.0031083669 	0.80608996
0.0030150754 	0.0033009823 	-0.0035240277 	0.79583148
0.0030351759 	0.0033009823 	-0.0035240277 	0.79583148
0.0030552764 	-0.0010740556 	-0.004240077 	0.78697267
0.0030753769 	-0.0010740556 	-0.004240077 	0.78697267
0.0030954774 	-0.0058042914 	-0.0052571704 	0.77974247
0.0031155779 	-0.010826538 	-0.0065827585 	0.77421845
0.0031356784 	-0.010826538 	-0.0065827585 	0.77421845
0.0031557789 	-0.016056186 	-0.00823921 	0.77020909
0.0031758794 	-0.016056186 	-0.00823921 	0.77020909
0.0031959799 	-0.021334868 	-0.010257879 	0.76729023
0.0032160804 	-0.02644647 	-0.012680349 	0.76487274
0.0032361809 	-0.02644647 	-0.012680349 	0.76487274
0.0032562814 	-0.031108342 	-0.01553022 	0.76233013
0.0032763819 	-0.034964555 	-0.018790506 	0.75915531
0.0032964824 	-0.034964555 	-0.018790506 	0.75915531
0.0033165829 	-0.037639167 	-0.02234418 	0.75509792
0.0033366834 	-0.038805779 	-0.02593222 	0.75025553
0.0033567839 	-0.038805779 	-0.02593222 	0.75025553
0.0033768844 	-0.03828006 	-0.029142903 	0.74498794
0.0033969849 	-0.036074637 	-0.031464344 	0.73970575
0.0034170854 	-0.036074637 	-0.031464344 	0.73970575
0.0034371859 	-0.032369955 	-0.032454231 	0.73466345
0.0034572864 	-0.027451327 	-0.031875251 	0.7298729
0.0034773869 	-0.021647917 	-0.029725832 	0.72515792
0.0034974874 	-0.021647917 	-0.029725832 	0.72515792
0.0035175879 	-0.015292082 	-0.026185267 	0.72023395
0.0035376884 	-0.0087258082 	-0.021527546 	0.71478118
0.0035577889 	-0.0023107705 	-0.016048576 	0.7084542
0.0035778894 	-0.0023107705 	-0.016048576 	0.7084542
0.0035979899 	0.0036573461 	-0.010020979 	0.70090304
0.0036180905 	0.0089341865 	-0.0036858414 	0.69171462
0.003638191 	0.013304519 	0.0027230122 	0.68043558
0.0036582915 	0.013304519 	0.0027230122 	0.68043558
0.003678392 	0.016637028 	0.0089166165 	0.66660844
0.0036984925 	0.018809037 	0.014447657 	0.64991505
0.003718593 	0.019734288 	0.018613132 	0.63036282
0.0037386935 	0.019405242 	0.020438884 	0.60823527
0.003758794 	0.017872866 	0.018887528 	0.5836434
0.0037788945 	0.017872866 	0.018887528 	0.5836434
0.003798995 	0.015320709 	0.013399261 	0.55575097
0.0038190955 	0.012123642 	0.0045690746 	0.52240126
0.003839196 	0.0087943088 	-0.0056158553 	0.48089962
0.0038592965 	0.005828314 	-0.014464462 	0.4297238
0.003879397 	0.0035496192 	-0.019882944 	0.3697583
0.0038994975 	0.0020342792 	-0.021239898 	0.30389891
0.003919598 	0.0011357174 	-0.019161068 	0.23554118
0.0039396985 	0.00062059314 	-0.014767886 	0.1671244
0.003959799 	0.00029301383 	-0.0090729191 	0.09969553
0.0039798995 	5.4405564e-05 	-0.0028777272 	0.033233483
0.004 	5.4405564e-05 	-0.0028777272 	0.033233483
