0 	-0.010128444 	0.0065318744 	1.0477527
5.5555556e-05 	0.01018635 	0.0090080017 	1.0423535
0.00011111111 	0.011443915 	0.010710732 	1.0417321
0.00016666667 	0.012542113 	0.014290268 	1.0423706
0.00022222222 	0.013720717 	0.019142605 	1.0441822
0.00027777778 	0.014920908 	0.024734188 	1.04705
0.00033333333 	0.015978641 	0.030464741 	1.0507971
0.00038888889 	0.016744817 	0.03565706 	1.0551193
0.00044444444 	0.017303912 	0.039678602 	1.0595611
0.0005 	0.017892404 	0.042007108 	1.0635251
0.00055555556 	0.018844338 	0.042421276 	1.0664007
0.00061111111 	0.020465621 	0.041174561 	1.0677732
0.00066666667 	0.022812823 	0.038760801 	1.067581
0.00072222222 	0.025665832 	0.035766254 	1.0661405
0.00077777778 	0.028539034 	0.032568792 	1.0640156
0.00083333333 	0.030897577 	0.029215303 	1.061835
0.00088888889 	0.032275139 	0.025416273 	1.0600465
0.00094444444 	0.032587121 	0.021031635 	1.058796
0.001 	0.031202379 	0.015216608 	1.0582868
0.0010617224 	0.028236206 	0.0078221716 	1.0587109
0.0011225923 	0.023955513 	0.00018796826 	1.0604377
0.0011826215 	0.019020936 	-0.0067485064 	1.0636959
0.0012418217 	0.014090285 	-0.01223191 	1.0682967
0.0013002041 	0.0095788671 	-0.01586959 	1.0737513
0.0013577803 	0.0057286553 	-0.0175868 	1.0796595
0.0014145612 	0.0026229543 	-0.017532917 	1.085844
0.0014705579 	0.00021020223 	-0.015971668 	1.09225
0.0015257812 	-0.0016363057 	-0.013195403 	1.0987798
0.0015802418 	-0.0031541318 	-0.0094375017 	1.1051819
0.0016339502 	-0.0047370204 	-0.0048668452 	1.1110283
0.0016869168 	-0.0067371729 	0.00038773485 	1.1156155
0.0017391518 	-0.0092680907 	0.0059053191 	1.1177847
0.0017906654 	-0.012195978 	0.010748028 	1.1159968
0.0018414676 	-0.015081734 	0.013372429 	1.1089395
0.0018915681 	-0.01729759 	0.012372718 	1.0963974
0.0019409766 	-0.018223769 	0.0075310889 	1.0794595
0.0019897027 	-0.017397314 	0.0001803402 	1.0598589
0.0020377558 	-0.014485455 	-0.00756992 	1.0392557
0.0020851453 	-0.0095463192 	-0.014077488 	1.0190767
0.0021318802 	-0.0031956865 	-0.018885319 	1.0005469
0.0021779697 	0.0036570317 	-0.02257878 	0.9845595
0.0022234225 	0.010091462 	-0.025971286 	0.97148439
0.0022682477 	0.015409511 	-0.029603826 	0.96125921
0.0023124537 	0.019170513 	-0.033568929 	0.95369732
0.0023560491 	0.021207422 	-0.037619149 	0.94868451
0.0023990425 	0.02161131 	-0.041315428 	0.94612561
0.002441442 	0.020739264 	-0.044131433 	0.94573229
0.002483256 	0.019268889 	-0.045495767 	0.94682694
0.0025244924 	0.018006068 	-0.044867007 	0.94828129
0.0025651593 	0.017639013 	-0.041893486 	0.94863254
0.0026052645 	0.01851695 	-0.036625313 	0.94637201
0.0026448158 	0.020472649 	-0.029664027 	0.94024781
0.0026838209 	0.022855196 	-0.022113009 	0.92957662
0.0027222872 	0.024758289 	-0.0152461 	0.91460235
0.0027602223 	0.025384085 	-0.010011405 	0.8966476
0.0027976334 	0.024399153 	-0.0066344972 	0.87779053
0.0028345278 	0.022046177 	-0.0047248604 	0.85995381
0.0028709126 	0.018788229 	-0.0037063076 	0.84405714
0.002906795 	0.015096962 	-0.0031807861 	0.83006001
0.0029421817 	0.011289577 	-0.002993218 	0.81750618
0.0029770797 	0.0073834239 	-0.0031083669 	0.80608996
0.0030114957 	0.0033009823 	-0.0035240277 	0.79583148
0.0030454363 	-0.0010740556 	-0.004240077 	0.78697267
0.0030789082 	-0.0058042914 	-0.0052571704 	0.77974247
0.0031119178 	-0.010826538 	-0.0065827585 	0.77421845
0.0031444715 	-0.016056186 	-0.00823921 	0.77020909
0.0031765755 	-0.021334868 	-0.010257879 	0.76729023
0.0032082362 	-0.02644647 	-0.012680349 	0.76487274
0.0032394596 	-0.031108342 	-0.01553022 	0.76233013
0.0032702517 	-0.034964555 	-0.018790506 	0.75915531
0.0033006186 	-0.037639167 	-0.02234418 	0.75509792
0.003330566 	-0.038805779 	-0.02593222 	0.75025553
0.0033600998 	-0.03828006 	-0.029142903 	0.74498794
0.0033892257 	-0.036074637 	-0.031464344 	0.73970575
0.0034179494 	-0.032369955 	-0.032454231 	0.73466345
0.0034462763 	-0.027451327 	-0.031875251 	0.7298729
0.003474212 	-0.021647917 	-0.029725832 	0.72515792
0.0035017619 	-0.015292082 	-0.026185267 	0.72023395
0.0035289312 	-0.0087258082 	-0.021527546 	0.71478118
0.0035557253 	-0.0023107705 	-0.016048576 	0.7084542
0.0035821494 	0.0036573461 	-0.010020979 	0.70090304
0.0036082084 	0.0089341865 	-0.0036858414 	0.69171462
0.0036339076 	0.013304519 	0.0027230122 	0.68043558
0.0036592518 	0.016637028 	0.0089166165 	0.66660844
0.003684246 	0.018809037 	0.014447657 	0.64991505
0.003708895 	0.019734288 	0.018613132 	0.63036282
0.0037332035 	0.019405242 	0.020438884 	0.60823527
0.0037571763 	0.017872866 	0.018887528 	0.5836434
0.003780818 	0.015320709 	0.013399261 	0.55575097
0.0038041332 	0.012123642 	0.0045690746 	0.52240126
0.0038271264 	0.0087943088 	-0.0056158553 	0.48089962
0.0038498019 	0.005828314 	-0.014464462 	0.4297238
0.0038721643 	0.0035496192 	-0.019882944 	0.3697583
0.0038942179 	0.0020342792 	-0.021239898 	0.30389891
0.0039159668 	0.0011357174 	-0.019161068 	0.23554118
0.0039374154 	0.00062059314 	-0.014767886 	0.1671244
0.0039585677 	0.00029301383 	-0.0090729191 	0.09969553
0.0039794279 	5.4405564e-05 	-0.0028777272 	0.033233483
0.004 	5.4405564e-05 	-0.0028777272 	0.033233483
