0 	-0.011260125 	0.0066751721 	1.0528001
5.5555625e-05 	-0.0096320893 	-0.0011024343 	1.0487208
0.00011111111 	-0.0063570985 	-0.0036022303 	1.0443315
0.00016666667 	-0.0036990354 	-0.0048270084 	1.0397375
0.00022222222 	-0.0017939252 	-0.005464933 	1.0350703
0.00027777778 	-0.00063686946 	-0.0056863451 	1.0304946
0.00033333333 	-0.00017403539 	-0.005542986 	1.0262055
0.00038888889 	-0.00030830493 	-0.0050628406 	1.0224147
0.00044444444 	-0.00090941723 	-0.004284015 	1.0193193
0.0005 	-0.0018297442 	-0.0032496233 	1.0170653
0.00055555556 	-0.0029227577 	-0.002002625 	1.0157123
0.00061111111 	-0.0040664374 	-0.00058433885 	1.0152163
0.00066666667 	-0.00518028 	0.00097375942 	1.0154321
0.00072222222 	-0.0062299572 	0.0026350938 	1.0161379
0.00077777778 	-0.0072025845 	0.0043650377 	1.0170751
0.00083333333 	-0.0081066183 	0.0061482748 	1.0179858
0.00088888889 	-0.0089922274 	0.0079932784 	1.0186484
0.00094444444 	-0.009900433 	0.0099397327 	1.0188959
0.001 	-0.010966032 	0.012331176 	1.0186035
0.0010617451 	-0.012283954 	0.015414626 	1.0175885
0.0011226367 	-0.013759555 	0.019216135 	1.0157853
0.0011826866 	-0.015326382 	0.023647388 	1.0127269
0.0012419064 	-0.017008339 	0.028401141 	1.0073503
0.0013003077 	-0.018881137 	0.033140222 	0.99829699
0.0013579017 	-0.021073139 	0.037618226 	0.98486915
0.0014146996 	-0.023743955 	0.041645284 	0.96797449
0.0014707124 	-0.026983762 	0.044965856 	0.949938
0.0015259509 	-0.03067666 	0.047303644 	0.93315616
0.001580426 	-0.034482938 	0.04843102 	0.91893679
0.001634148 	-0.037965052 	0.048211581 	0.90748639
0.0016871274 	-0.040741977 	0.046661861 	0.89855349
0.0017393745 	-0.042573007 	0.043988789 	0.89184605
0.0017908994 	-0.043350914 	0.040607261 	0.88708673
0.0018417121 	-0.043088712 	0.037013783 	0.88395301
0.0018918224 	-0.041933587 	0.033580434 	0.88208795
0.0019412401 	-0.040169507 	0.030417722 	0.8811685
0.0019899746 	-0.038114587 	0.027403998 	0.88089041
0.0020380356 	-0.036002709 	0.024350758 	0.88086759
0.0020854322 	-0.033890487 	0.021238864 	0.88058511
0.0021321736 	-0.031642469 	0.018324747 	0.879495
0.002178269 	-0.029101171 	0.015934357 	0.87714815
0.0022237272 	-0.026219248 	0.014155639 	0.87328652
0.002268557 	-0.02309766 	0.012671843 	0.86792445
0.0023127672 	-0.019991259 	0.010906081 	0.86145597
0.0023563662 	-0.017192215 	0.0082514019 	0.85459472
0.0023993626 	-0.014984879 	0.0041991212 	0.84793225
0.0024417647 	-0.013583469 	-0.0016245996 	0.84133491
0.0024835806 	-0.013057917 	-0.0092530562 	0.83383214
0.0025248186 	-0.013372406 	-0.017996776 	0.82445623
0.0025654865 	-0.014433897 	-0.026370806 	0.8133046
0.0026055923 	-0.016060259 	-0.032408184 	0.80183336
0.0026451437 	-0.01790972 	-0.034246511 	0.79225137
0.0026841484 	-0.019538832 	-0.030709617 	0.78646951
0.002722614 	-0.020569343 	-0.021646476 	0.78532587
0.0027605478 	-0.02080211 	-0.007863292 	0.78850919
0.0027979573 	-0.020185168 	0.0091466602 	0.79498689
0.0028348498 	-0.018647629 	0.027546549 	0.80326922
0.0028712322 	-0.016223558 	0.045404471 	0.81175504
0.0029071118 	-0.013061667 	0.0610598 	0.81889818
0.0029424953 	-0.009282036 	0.073257767 	0.82328056
0.0029773898 	-0.0049921384 	0.081135036 	0.8238914
0.003011802 	-0.00026770765 	0.084143426 	0.82052035
0.0030457385 	0.0047442976 	0.082027998 	0.81376181
0.0030792059 	0.0099151464 	0.074723363 	0.80464287
0.0031122107 	0.015203658 	0.06247271 	0.79433673
0.0031447592 	0.020445485 	0.045867941 	0.7838131
0.0031768579 	0.025444635 	0.025855582 	0.77374787
0.0032085129 	0.029935528 	0.0037833074 	0.76463694
0.0032397303 	0.033651234 	-0.018772867 	0.75671036
0.0032705162 	0.036534438 	-0.040290043 	0.74998473
0.0033008765 	0.038651673 	-0.059528269 	0.74426477
0.0033308172 	0.040074089 	-0.075586305 	0.73924907
0.0033603441 	0.040851928 	-0.087891795 	0.73461738
0.0033894627 	0.041061165 	-0.096105097 	0.72996948
0.0034181789 	0.040836768 	-0.10007604 	0.72468908
0.0034464982 	0.040353388 	-0.099849225 	0.7180413
0.003474426 	0.03971744 	-0.095649794 	0.70969358
0.0035019678 	0.038841773 	-0.087847207 	0.70035831
0.0035291288 	0.037429661 	-0.076968944 	0.69188096
0.0035559144 	0.035132155 	-0.063781124 	0.68640896
0.0035823298 	0.031788381 	-0.049337168 	0.68496999
0.0036083801 	0.027579231 	-0.03483124 	0.68642367
0.0036340702 	0.022986444 	-0.021277695 	0.68752031
0.0036594053 	0.0185738 	-0.0092593953 	0.68411275
0.0036843901 	0.014779765 	0.0010364332 	0.67272792
0.0037090296 	0.011794881 	0.0095832222 	0.65152508
0.0037333285 	0.0095158505 	0.01635646 	0.62017818
0.0037572915 	0.00770929 	0.021436619 	0.57912014
0.0037809233 	0.0062000725 	0.025132335 	0.52896502
0.0038042285 	0.0049075618 	0.027814665 	0.47065524
0.0038272115 	0.003810051 	0.029593729 	0.40603201
0.0038498768 	0.0028921051 	0.030274294 	0.33809859
0.0038722288 	0.0021183033 	0.029632023 	0.27059963
0.0038942718 	0.0014463706 	0.027609589 	0.20709357
0.0039160102 	0.00086118498 	0.024242578 	0.15000505
0.003937448 	0.00039212541 	0.019505303 	0.10013374
0.0039585896 	8.9573679e-05 	0.013243178 	0.056760125
0.0039794389 	-1.1280131e-05 	0.0051705897 	0.018130479
0.004 	6.2219333e-05 	0.0023950903 	0.019614521
