0 	0.053658131 	0.036118216 	1.0111568
5.5555556e-05 	0.032021909 	0.057427506 	1.0160436
0.00011111111 	0.024200341 	0.059382812 	1.0216994
0.00016666667 	0.01979153 	0.05626317 	1.0280959
0.00022222222 	0.01619856 	0.050407575 	1.0346321
0.00027777778 	0.012527223 	0.043542405 	1.0398589
0.00033333333 	0.0083905619 	0.03729299 	1.0419201
0.00038888889 	0.0036876569 	0.032766555 	1.0393914
0.00044444444 	-0.0015078462 	0.030264712 	1.0319238
0.0005 	-0.0069772921 	0.029433813 	1.0204893
0.00055555556 	-0.012386165 	0.029684833 	1.0071076
0.00061111111 	-0.017367211 	0.030526352 	0.99409424
0.00066666667 	-0.021550391 	0.031693592 	0.98320984
0.00072222222 	-0.02466759 	0.033132685 	0.97523785
0.00077777778 	-0.026610947 	0.034889286 	0.97009129
0.00083333333 	-0.027401049 	0.036997434 	0.96718256
0.00088888889 	-0.027141676 	0.039416283 	0.96578093
0.00094444444 	-0.025995027 	0.04201332 	0.96524337
0.001 	-0.023899902 	0.044678745 	0.96506365
0.0010617199 	-0.020930862 	0.047067385 	0.96512847
0.0011225874 	-0.017476983 	0.048711874 	0.96546345
0.0011826143 	-0.013742037 	0.049528054 	0.96631407
0.0012418122 	-0.0098853092 	0.049516902 	0.9679374
0.0013001926 	-0.0059621463 	0.048685912 	0.97044973
0.0013577668 	-0.0019361312 	0.046998495 	0.97373169
0.0014145458 	0.002274585 	0.044442391 	0.97740352
0.0014705407 	0.0067018959 	0.041118614 	0.98092656
0.0015257623 	0.011250562 	0.037274298 	0.98384559
0.0015802213 	0.015736244 	0.033150902 	0.98593059
0.0016339282 	0.019891062 	0.028918119 	0.98717295
0.0016868934 	0.023414542 	0.024568577 	0.98759161
0.0017391271 	0.026030082 	0.020053498 	0.98705877
0.0017906395 	0.027508325 	0.015348407 	0.98524527
0.0018414404 	0.027867661 	0.010496776 	0.98167084
0.0018915398 	0.027257354 	0.0055056148 	0.97580989
0.0019409473 	0.025887348 	0.00037123478 	0.96726176
0.0019896725 	0.023957226 	-0.0048725047 	0.95583296
0.0020377248 	0.021481379 	-0.010057241 	0.94172014
0.0020851134 	0.018355487 	-0.014960862 	0.92570987
0.0021318476 	0.014429039 	-0.01957689 	0.90934355
0.0021779364 	0.0096444003 	-0.024318251 	0.89469463
0.0022233887 	0.0041901921 	-0.029843446 	0.88350839
0.0022682133 	-0.0014939757 	-0.036730844 	0.87636219
0.0023124189 	-0.0068721825 	-0.045141227 	0.87252646
0.0023560139 	-0.011570356 	-0.054707733 	0.87052133
0.0023990069 	-0.015549531 	-0.064543601 	0.86895937
0.0024414062 	-0.01910212 	-0.073460923 	0.86714534
0.0024832199 	-0.022736828 	-0.080364546 	0.86522696
0.0025244562 	-0.026923072 	-0.08462692 	0.86391119
0.002565123 	-0.03181912 	-0.086179383 	0.86394394
0.0026052281 	-0.037130292 	-0.085292479 	0.86558613
0.0026447794 	-0.042216251 	-0.082344108 	0.86835558
0.0026837845 	-0.046390116 	-0.077795708 	0.87115208
0.0027222509 	-0.049151485 	-0.072346143 	0.8725643
0.0027601861 	-0.050216341 	-0.066928544 	0.87124351
0.0027975974 	-0.04943018 	-0.062486893 	0.8661774
0.002834492 	-0.04676565 	-0.05971992 	0.85679852
0.0028708772 	-0.04237383 	-0.059025885 	0.84293682
0.0029067598 	-0.036626856 	-0.060659595 	0.82469687
0.0029421469 	-0.030035889 	-0.064861963 	0.80238554
0.0029770452 	-0.023147965 	-0.071813814 	0.77639978
0.0030114616 	-0.016506721 	-0.081361514 	0.74718359
0.0030454028 	-0.010647237 	-0.09274992 	0.71533513
0.0030788752 	-0.0061119726 	-0.10458548 	0.68187976
0.0031118853 	-0.0034267561 	-0.11516803 	0.64851934
0.0031444395 	-0.0030408718 	-0.12298367 	0.61761599
0.0031765442 	-0.0052085387 	-0.12696066 	0.5918631
0.0032082055 	-0.0098687175 	-0.12633082 	0.57383337
0.0032394295 	-0.016649113 	-0.12044786 	0.56549841
0.0032702223 	-0.024936638 	-0.10903897 	0.56754913
0.0033005899 	-0.033947143 	-0.092796098 	0.5785941
0.0033305381 	-0.042913171 	-0.073641076 	0.59481068
0.0033600727 	-0.051276676 	-0.054138548 	0.610879
0.0033891994 	-0.05874355 	-0.036393383 	0.62209608
0.0034179239 	-0.065135051 	-0.021350951 	0.6262037
0.0034462517 	-0.070291659 	-0.0088837967 	0.62354989
0.0034741882 	-0.074002538 	0.0016270723 	0.61575324
0.003501739 	-0.076071078 	0.010727043 	0.60422312
0.0035289093 	-0.076230396 	0.018612809 	0.58949166
0.0035557043 	-0.074443346 	0.025166274 	0.57143435
0.0035821293 	-0.07107991 	0.030153897 	0.54950533
0.0036081894 	-0.066574526 	0.03351601 	0.52349061
0.0036338895 	-0.061297302 	0.035418473 	0.49365443
0.0036592348 	-0.055536848 	0.036133818 	0.46061658
0.00368423 	-0.049504878 	0.035911201 	0.42519401
0.00370888 	-0.043374838 	0.034931519 	0.38829944
0.0037331896 	-0.03731747 	0.033332439 	0.35088258
0.0037571635 	-0.031506908 	0.031242747 	0.31385395
0.0037808063 	-0.026098306 	0.028782996 	0.27797587
0.0038041226 	-0.021199007 	0.026038843 	0.24376248
0.0038271169 	-0.016853878 	0.023036663 	0.21143469
0.0038497936 	-0.01305187 	0.019745407 	0.18094199
0.0038721572 	-0.0097495838 	0.016111457 	0.15202953
0.0038942119 	-0.0069019813 	0.012123374 	0.12431447
0.003915962 	-0.0044782525 	0.0079009805 	0.097340554
0.0039374118 	-0.0024781462 	0.003796844 	0.070597868
0.0039585653 	-0.00097506989 	0.00050092058 	0.043492701
0.0039794267 	-0.00011130723 	-0.00091662933 	0.015270609
0.004 	-0.00016707768 	0.0037256732 	0.017972465
