0 	0.02361616 	-0.038475336 	1.0098604
2.0100503e-05 	0.02361616 	-0.038475336 	1.0098604
4.0201005e-05 	0.02361616 	-0.038475336 	1.0098604
6.0301508e-05 	0.042701669 	-0.024100988 	1.0059546
8.040201e-05 	0.042701669 	-0.024100988 	1.0059546
0.00010050251 	0.042701669 	-0.024100988 	1.0059546
0.00012060302 	0.048860797 	-0.018369344 	1.0019454
0.00014070352 	0.048860797 	-0.018369344 	1.0019454
0.00016080402 	0.048860797 	-0.018369344 	1.0019454
0.00018090452 	0.052292064 	-0.01532152 	0.99782797
0.00020100503 	0.052292064 	-0.01532152 	0.99782797
0.00022110553 	0.052292064 	-0.01532152 	0.99782797
0.00024120603 	0.054159579 	-0.013513689 	0.99363571
0.00026130653 	0.054159579 	-0.013513689 	0.99363571
0.00028140704 	0.054744447 	-0.01250646 	0.98945737
0.00030150754 	0.054744447 	-0.01250646 	0.98945737
0.00032160804 	0.054744447 	-0.01250646 	0.98945737
0.00034170854 	0.054169934 	-0.012073977 	0.98544994
0.00036180905 	0.054169934 	-0.012073977 	0.98544994
0.00038190955 	0.054169934 	-0.012073977 	0.98544994
0.00040201005 	0.052527817 	-0.011992322 	0.98188793
0.00042211055 	0.052527817 	-0.011992322 	0.98188793
0.00044221106 	0.052527817 	-0.011992322 	0.98188793
0.00046231156 	0.049920142 	-0.012019582 	0.97925259
0.00048241206 	0.049920142 	-0.012019582 	0.97925259
0.00050251256 	0.046483637 	-0.012003848 	0.97826257
0.00052261307 	0.046483637 	-0.012003848 	0.97826257
0.00054271357 	0.046483637 	-0.012003848 	0.97826257
0.00056281407 	0.042415959 	-0.011940092 	0.97965204
0.00058291457 	0.042415959 	-0.011940092 	0.97965204
0.00060301508 	0.042415959 	-0.011940092 	0.97965204
0.00062311558 	0.037965832 	-0.011839045 	0.98367573
0.00064321608 	0.037965832 	-0.011839045 	0.98367573
0.00066331658 	0.037965832 	-0.011839045 	0.98367573
0.00068341709 	0.033385642 	-0.011512571 	0.98966869
0.00070351759 	0.033385642 	-0.011512571 	0.98966869
0.00072361809 	0.028895518 	-0.010580552 	0.99613634
0.00074371859 	0.028895518 	-0.010580552 	0.99613634
0.0007638191 	0.028895518 	-0.010580552 	0.99613634
0.0007839196 	0.024660966 	-0.0087606125 	1.0014791
0.0008040201 	0.024660966 	-0.0087606125 	1.0014791
0.0008241206 	0.024660966 	-0.0087606125 	1.0014791
0.00084422111 	0.020833417 	-0.0061646613 	1.0048345
0.00086432161 	0.020833417 	-0.0061646613 	1.0048345
0.00088442211 	0.020833417 	-0.0061646613 	1.0048345
0.00090452261 	0.017490156 	-0.0032813541 	1.0064084
0.00092462312 	0.017490156 	-0.0032813541 	1.0064084
0.00094472362 	0.014723518 	-0.0007733576 	1.0071402
0.00096482412 	0.014723518 	-0.0007733576 	1.0071402
0.00098492462 	0.014723518 	-0.0007733576 	1.0071402
0.0010050251 	0.012335676 	0.0010729415 	1.0081103
0.0010251256 	0.012335676 	0.0010729415 	1.0081103
0.0010452261 	0.012335676 	0.0010729415 	1.0081103
0.0010653266 	0.010444245 	0.0017265845 	1.0100684
0.0010854271 	0.010444245 	0.0017265845 	1.0100684
0.0011055276 	0.010597209 	0.00023558504 	1.0070566
0.0011256281 	0.0092345237 	-8.603936e-05 	1.0092819
0.0011457286 	0.0092345237 	-8.603936e-05 	1.0092819
0.0011658291 	0.0092345237 	-8.603936e-05 	1.0092819
0.0011859296 	0.0082568552 	-0.0012574103 	1.0117626
0.0012060302 	0.0082568552 	-0.0012574103 	1.0117626
0.0012261307 	0.0082568552 	-0.0012574103 	1.0117626
0.0012462312 	0.007544563 	-0.003003163 	1.0135988
0.0012663317 	0.007544563 	-0.003003163 	1.0135988
0.0012864322 	0.007544563 	-0.003003163 	1.0135988
0.0013065327 	0.0070631689 	-0.0050754035 	1.014204
0.0013266332 	0.0070631689 	-0.0050754035 	1.014204
0.0013467337 	0.0070631689 	-0.0050754035 	1.014204
0.0013668342 	0.0068449188 	-0.007264279 	1.0136073
0.0013869347 	0.0068449188 	-0.007264279 	1.0136073
0.0014070352 	0.0068449188 	-0.007264279 	1.0136073
0.0014271357 	0.0068870924 	-0.0094162528 	1.0124092
0.0014472362 	0.0068870924 	-0.0094162528 	1.0124092
0.0014673367 	0.0068870924 	-0.0094162528 	1.0124092
0.0014874372 	0.0070968558 	-0.011526911 	1.0114331
0.0015075377 	0.0070968558 	-0.011526911 	1.0114331
0.0015276382 	0.0072884755 	-0.013871409 	1.0112982
0.0015477387 	0.0072884755 	-0.013871409 	1.0112982
0.0015678392 	0.0072884755 	-0.013871409 	1.0112982
0.0015879397 	0.0072585503 	-0.016969309 	1.0121696
0.0016080402 	0.0072585503 	-0.016969309 	1.0121696
0.0016281407 	0.0072585503 	-0.016969309 	1.0121696
0.0016482412 	0.0068718635 	-0.021267944 	1.0137924
0.0016683417 	0.0068718635 	-0.021267944 	1.0137924
0.0016884422 	0.0061094597 	-0.026658787 	1.0157356
0.0017085427 	0.0061094597 	-0.026658787 	1.0157356
0.0017286432 	0.0061094597 	-0.026658787 	1.0157356
0.0017487437 	0.0050486291 	-0.03229859 	1.0176385
0.0017688442 	0.0050486291 	-0.03229859 	1.0176385
0.0017889447 	0.0050486291 	-0.03229859 	1.0176385
0.0018090452 	0.0038048981 	-0.0369872 	1.0192687
0.0018291457 	0.0038048981 	-0.0369872 	1.0192687
0.0018492462 	0.0025340409 	-0.039856876 	1.020384
0.0018693467 	0.0025340409 	-0.039856876 	1.020384
0.0018894472 	0.0025340409 	-0.039856876 	1.020384
0.0019095477 	0.0014558005 	-0.040768714 	1.0206306
0.0019296482 	0.0014558005 	-0.040768714 	1.0206306
0.0019497487 	0.00081868921 	-0.040217121 	1.0196829
0.0019698492 	0.00081868921 	-0.040217121 	1.0196829
0.0019899497 	0.00081868921 	-0.040217121 	1.0196829
0.0020100503 	0.00082112348 	-0.038924271 	1.0174636
0.0020301508 	0.00082112348 	-0.038924271 	1.0174636
0.0020502513 	0.0015641242 	-0.037526503 	1.0142576
0.0020703518 	0.0015641242 	-0.037526503 	1.0142576
0.0020904523 	0.0030040297 	-0.036446708 	1.0105949
0.0021105528 	0.0030040297 	-0.036446708 	1.0105949
0.0021306533 	0.0030040297 	-0.036446708 	1.0105949
0.0021507538 	0.004953703 	-0.035889489 	1.0070767
0.0021708543 	0.004953703 	-0.035889489 	1.0070767
0.0021909548 	0.0071780007 	-0.035906876 	1.0041846
0.0022110553 	0.0071780007 	-0.035906876 	1.0041846
0.0022311558 	0.0094333279 	-0.036427368 	1.0021871
0.0022512563 	0.0094333279 	-0.036427368 	1.0021871
0.0022713568 	0.01150847 	-0.03727852 	1.0011414
0.0022914573 	0.01150847 	-0.03727852 	1.0011414
0.0023115578 	0.01150847 	-0.03727852 	1.0011414
0.0023316583 	0.013275248 	-0.038202798 	1.0009323
0.0023517588 	0.013275248 	-0.038202798 	1.0009323
0.0023718593 	0.0146849 	-0.038909449 	1.0013379
0.0023919598 	0.0146849 	-0.038909449 	1.0013379
0.0024120603 	0.015753919 	-0.039114925 	1.002083
0.0024321608 	0.015753919 	-0.039114925 	1.002083
0.0024522613 	0.016532369 	-0.038545967 	1.0028741
0.0024723618 	0.016532369 	-0.038545967 	1.0028741
0.0024924623 	0.017084815 	-0.036943378 	1.0034311
0.0025125628 	0.017084815 	-0.036943378 	1.0034311
0.0025326633 	0.017488452 	-0.0340609 	1.0035149
0.0025527638 	0.017488452 	-0.0340609 	1.0035149
0.0025728643 	0.017792633 	-0.029667765 	1.0029563
0.0025929648 	0.017792633 	-0.029667765 	1.0029563
0.0026130653 	0.017992 	-0.023565223 	1.0016741
0.0026331658 	0.017992 	-0.023565223 	1.0016741
0.0026532663 	0.018104815 	-0.015610559 	0.99966042
0.0026733668 	0.018104815 	-0.015610559 	0.99966042
0.0026934673 	0.018148283 	-0.0057693972 	0.99696434
0.0027135678 	0.018148283 	-0.0057693972 	0.99696434
0.0027336683 	0.018128451 	0.0058526463 	0.99363946
0.0027537688 	0.018128451 	0.0058526463 	0.99363946
0.0027738693 	0.018045829 	0.018951637 	0.98972073
0.0027939698 	0.018045829 	0.018951637 	0.98972073
0.0028140704 	0.017860167 	0.033054122 	0.98518865
0.0028341709 	0.017860167 	0.033054122 	0.98518865
0.0028542714 	0.017532928 	0.047528855 	0.97996057
0.0028743719 	0.017016535 	0.061643218 	0.97393708
0.0028944724 	0.017016535 	0.061643218 	0.97393708
0.0029145729 	0.016254167 	0.0746426 	0.9670201
0.0029346734 	0.016254167 	0.0746426 	0.9670201
0.0029547739 	0.015185151 	0.085852612 	0.95916519
0.0029748744 	0.015185151 	0.085852612 	0.95916519
0.0029949749 	0.013754909 	0.094766376 	0.95048019
0.0030150754 	0.01193446 	0.10107321 	0.9413574
0.0030351759 	0.01193446 	0.10107321 	0.9413574
0.0030552764 	0.0097372201 	0.10459803 	0.93250539
0.0030753769 	0.0097372201 	0.10459803 	0.93250539
0.0030954774 	0.007260772 	0.10521083 	0.92484976
0.0031155779 	0.0046835139 	0.10281325 	0.91913027
0.0031356784 	0.0046835139 	0.10281325 	0.91913027
0.0031557789 	0.0022178421 	0.097450385 	0.91558814
0.0031758794 	0.0022178421 	0.097450385 	0.91558814
0.0031959799 	5.5959283e-05 	0.089447502 	0.91381604
0.0032160804 	-0.0016946165 	0.079432354 	0.9129382
0.0032361809 	-0.0016946165 	0.079432354 	0.9129382
0.0032562814 	-0.0030145362 	0.06820693 	0.91193908
0.0032763819 	-0.003946035 	0.056556702 	0.90993452
0.0032964824 	-0.003946035 	0.056556702 	0.90993452
0.0033165829 	-0.0045636689 	0.045103765 	0.90627012
0.0033366834 	-0.0049467085 	0.034246026 	0.90047478
0.0033567839 	-0.0049467085 	0.034246026 	0.90047478
0.0033768844 	-0.0051732209 	0.024166169 	0.89215149
0.0033969849 	-0.0053024929 	0.014867343 	0.88089626
0.0034170854 	-0.0053024929 	0.014867343 	0.88089626
0.0034371859 	-0.0053467378 	0.00625351 	0.86628585
0.0034572864 	-0.0052720651 	-0.0017912446 	0.84794715
0.0034773869 	-0.0050132499 	-0.0093141055 	0.82565594
0.0034974874 	-0.0050132499 	-0.0093141055 	0.82565594
0.0035175879 	-0.0045247959 	-0.01623669 	0.79949115
0.0035376884 	-0.0038125394 	-0.022350131 	0.76991692
0.0035577889 	-0.0029216072 	-0.027407568 	0.73776984
0.0035778894 	-0.0029216072 	-0.027407568 	0.73776984
0.0035979899 	-0.0019389517 	-0.031230805 	0.70409664
0.0036180905 	-0.00097354559 	-0.033785492 	0.66993732
0.003638191 	-0.00011620158 	-0.035170147 	0.63614859
0.0036582915 	-0.00011620158 	-0.035170147 	0.63614859
0.003678392 	0.00058169155 	-0.035529729 	0.60332222
0.0036984925 	0.0011068143 	-0.03496127 	0.57177817
0.003718593 	0.0014648643 	-0.033471542 	0.54157246
0.0037386935 	0.0016628177 	-0.031005651 	0.512475
0.003758794 	0.0017038054 	-0.027528723 	0.48392166
0.0037788945 	0.0017038054 	-0.027528723 	0.48392166
0.003798995 	0.0015945748 	-0.023114999 	0.45498695
0.0038190955 	0.0013561983 	-0.018003321 	0.42443574
0.003839196 	0.0010294497 	-0.012597692 	0.39088884
0.0038592965 	0.00067077428 	-0.0074124649 	0.35308442
0.003879397 	0.00033939216 	-0.0029777517 	0.3101599
0.0038994975 	8.1607441e-05 	0.00027261234 	0.26185649
0.003919598 	-7.2449662e-05 	0.0021058554 	0.20857964
0.0039396985 	-0.00011953229 	0.0025624436 	0.15131202
0.003959799 	-8.7584235e-05 	0.001959703 	0.091441379
0.0039798995 	-1.9951246e-05 	0.0007673593 	0.030518049
0.004 	-1.9951246e-05 	0.0007673593 	0.030518049
