0 	0.025927857 	-0.026765755 	1.017901
2.0100503e-05 	-0.030324722 	-0.024580769 	1.0181343
4.0201005e-05 	-0.030324722 	-0.024580769 	1.0181343
6.0301508e-05 	-0.040735243 	-0.0048301023 	1.0181656
8.040201e-05 	-0.040735243 	-0.0048301023 	1.0181656
0.00010050251 	-0.040735243 	-0.0048301023 	1.0181656
0.00012060302 	-0.043272284 	0.0048750194 	1.0179533
0.00014070352 	-0.043272284 	0.0048750194 	1.0179533
0.00016080402 	-0.043272284 	0.0048750194 	1.0179533
0.00018090452 	-0.045095073 	0.012594012 	1.0174107
0.00020100503 	-0.045095073 	0.012594012 	1.0174107
0.00022110553 	-0.045095073 	0.012594012 	1.0174107
0.00024120603 	-0.046826853 	0.019799149 	1.016353
0.00026130653 	-0.046826853 	0.019799149 	1.016353
0.00028140704 	-0.048492486 	0.026774186 	1.0144733
0.00030150754 	-0.048492486 	0.026774186 	1.0144733
0.00032160804 	-0.048492486 	0.026774186 	1.0144733
0.00034170854 	-0.049962261 	0.033493967 	1.0114211
0.00036180905 	-0.049962261 	0.033493967 	1.0114211
0.00038190955 	-0.049962261 	0.033493967 	1.0114211
0.00040201005 	-0.05108881 	0.039850977 	1.0069898
0.00042211055 	-0.05108881 	0.039850977 	1.0069898
0.00044221106 	-0.05108881 	0.039850977 	1.0069898
0.00046231156 	-0.051809556 	0.045756589 	1.0013199
0.00048241206 	-0.051809556 	0.045756589 	1.0013199
0.00050251256 	-0.052194214 	0.051182416 	0.99497124
0.00052261307 	-0.052194214 	0.051182416 	0.99497124
0.00054271357 	-0.052194214 	0.051182416 	0.99497124
0.00056281407 	-0.052408034 	0.05613559 	0.98877734
0.00058291457 	-0.052408034 	0.05613559 	0.98877734
0.00060301508 	-0.052408034 	0.05613559 	0.98877734
0.00062311558 	-0.045685308 	0.066435944 	0.98313886
0.00064321608 	-0.045685308 	0.066435944 	0.98313886
0.00066331658 	-0.045685308 	0.066435944 	0.98313886
0.00068341709 	-0.045599082 	0.06971383 	0.9804051
0.00070351759 	-0.045599082 	0.06971383 	0.9804051
0.00072361809 	-0.045594629 	0.071981457 	0.97908472
0.00074371859 	-0.045594629 	0.071981457 	0.97908472
0.0007638191 	-0.045594629 	0.071981457 	0.97908472
0.0007839196 	-0.045688658 	0.072946824 	0.97897322
0.0008040201 	-0.045688658 	0.072946824 	0.97897322
0.0008241206 	-0.045688658 	0.072946824 	0.97897322
0.00084422111 	-0.045927924 	0.0725148 	0.97985874
0.00086432161 	-0.045927924 	0.0725148 	0.97985874
0.00088442211 	-0.045927924 	0.0725148 	0.97985874
0.00090452261 	-0.046354993 	0.070798983 	0.98161313
0.00092462312 	-0.046354993 	0.070798983 	0.98161313
0.00094472362 	-0.046926017 	0.067958729 	0.98413164
0.00096482412 	-0.046926017 	0.067958729 	0.98413164
0.00098492462 	-0.046926017 	0.067958729 	0.98413164
0.0010050251 	-0.047358878 	0.063813552 	0.98736524
0.0010251256 	-0.047358878 	0.063813552 	0.98736524
0.0010452261 	-0.056610545 	0.059829718 	0.98410187
0.0010653266 	-0.057169957 	0.054604118 	0.98759008
0.0010854271 	-0.057169957 	0.054604118 	0.98759008
0.0011055276 	-0.057169957 	0.054604118 	0.98759008
0.0011256281 	-0.056483313 	0.048491849 	0.99097641
0.0011457286 	-0.056483313 	0.048491849 	0.99097641
0.0011658291 	-0.046098158 	0.050659781 	0.99404693
0.0011859296 	-0.043837334 	0.0421329 	0.9965283
0.0012060302 	-0.054494948 	0.041696655 	0.99380395
0.0012261307 	-0.054494948 	0.041696655 	0.99380395
0.0012462312 	-0.050951434 	0.034664965 	0.99604824
0.0012663317 	-0.050951434 	0.034664965 	0.99604824
0.0012864322 	-0.050951434 	0.034664965 	0.99604824
0.0013065327 	-0.046057166 	0.027893821 	0.99775446
0.0013266332 	-0.046057166 	0.027893821 	0.99775446
0.0013467337 	-0.046057166 	0.027893821 	0.99775446
0.0013668342 	-0.040135431 	0.021861533 	0.99894493
0.0013869347 	-0.040135431 	0.021861533 	0.99894493
0.0014070352 	-0.040135431 	0.021861533 	0.99894493
0.0014271357 	-0.033666894 	0.016871346 	0.99959759
0.0014472362 	-0.033666894 	0.016871346 	0.99959759
0.0014673367 	-0.033666894 	0.016871346 	0.99959759
0.0014874372 	-0.027123976 	0.012960161 	0.99972904
0.0015075377 	-0.027123976 	0.012960161 	0.99972904
0.0015276382 	-0.020889673 	0.0098994944 	0.99945011
0.0015477387 	-0.020889673 	0.0098994944 	0.99945011
0.0015678392 	-0.020889673 	0.0098994944 	0.99945011
0.0015879397 	-0.015161864 	0.0073435273 	0.99893887
0.0016080402 	-0.015161864 	0.0073435273 	0.99893887
0.0016281407 	-0.015161864 	0.0073435273 	0.99893887
0.0016482412 	-0.0099890268 	0.0049661553 	0.99833193
0.0016683417 	-0.0099890268 	0.0049661553 	0.99833193
0.0016884422 	-0.0053178097 	0.0025705465 	0.99768706
0.0017085427 	-0.0053178097 	0.0025705465 	0.99768706
0.0017286432 	-0.0053178097 	0.0025705465 	0.99768706
0.0017487437 	-0.0010434492 	0.00012092791 	0.99695828
0.0017688442 	-0.0010434492 	0.00012092791 	0.99695828
0.0017889447 	-0.0010434492 	0.00012092791 	0.99695828
0.0018090452 	0.002908041 	-0.0022703737 	0.99605057
0.0018291457 	0.002908041 	-0.0022703737 	0.99605057
0.0018492462 	0.006571323 	-0.0043802876 	0.99486924
0.0018693467 	0.006571323 	-0.0043802876 	0.99486924
0.0018894472 	0.006571323 	-0.0043802876 	0.99486924
0.0019095477 	0.0099386513 	-0.0059122017 	0.99337332
0.0019296482 	0.0099386513 	-0.0059122017 	0.99337332
0.0019497487 	0.012953409 	-0.0065588592 	0.99160956
0.0019698492 	0.012953409 	-0.0065588592 	0.99160956
0.0019899497 	0.015548076 	-0.0060537788 	0.98969166
0.0020100503 	0.015548076 	-0.0060537788 	0.98969166
0.0020301508 	0.015548076 	-0.0060537788 	0.98969166
0.0020502513 	0.017658906 	-0.0042307666 	0.98773685
0.0020703518 	0.017658906 	-0.0042307666 	0.98773685
0.0020904523 	0.019215263 	-0.0010944654 	0.98573304
0.0021105528 	0.019215263 	-0.0010944654 	0.98573304
0.0021306533 	0.019215263 	-0.0010944654 	0.98573304
0.0021507538 	0.020176531 	0.0031829487 	0.98333927
0.0021708543 	0.020176531 	0.0031829487 	0.98333927
0.0021909548 	0.020560452 	0.0084258197 	0.97973777
0.0022110553 	0.020560452 	0.0084258197 	0.97973777
0.0022311558 	0.020413929 	0.014803306 	0.97364402
0.0022512563 	0.020413929 	0.014803306 	0.97364402
0.0022713568 	0.019728255 	0.023174176 	0.96381739
0.0022914573 	0.019728255 	0.023174176 	0.96381739
0.0023115578 	0.019728255 	0.023174176 	0.96381739
0.0023316583 	0.018339533 	0.034772216 	0.94976478
0.0023517588 	0.018339533 	0.034772216 	0.94976478
0.0023718593 	0.015973884 	0.050028485 	0.93169059
0.0023919598 	0.015973884 	0.050028485 	0.93169059
0.0024120603 	0.012558094 	0.067694352 	0.90976078
0.0024321608 	0.012558094 	0.067694352 	0.90976078
0.0024522613 	0.0084281488 	0.085008623 	0.88396487
0.0024723618 	0.0084281488 	0.085008623 	0.88396487
0.0024924623 	0.0039717569 	0.098392095 	0.85502578
0.0025125628 	0.0039717569 	0.098392095 	0.85502578
0.0025326633 	-0.00065436936 	0.1046587 	0.825487
0.0025527638 	-0.00065436936 	0.1046587 	0.825487
0.0025728643 	-0.0051946677 	0.10272855 	0.79895278
0.0025929648 	-0.0051946677 	0.10272855 	0.79895278
0.0026130653 	-0.0091292246 	0.094141751 	0.77781531
0.0026331658 	-0.0091292246 	0.094141751 	0.77781531
0.0026532663 	-0.011956228 	0.081853482 	0.76228824
0.0026733668 	-0.011956228 	0.081853482 	0.76228824
0.0026934673 	-0.013443831 	0.068709251 	0.75120184
0.0027135678 	-0.013443831 	0.068709251 	0.75120184
0.0027336683 	-0.013651633 	0.056678269 	0.74308513
0.0027537688 	-0.013651633 	0.056678269 	0.74308513
0.0027738693 	-0.012855468 	0.046858272 	0.73672945
0.0027939698 	-0.012855468 	0.046858272 	0.73672945
0.0028140704 	-0.011459102 	0.039794282 	0.73126674
0.0028341709 	-0.011459102 	0.039794282 	0.73126674
0.0028542714 	-0.0099398248 	0.035615023 	0.72608327
0.0028743719 	-0.0086928989 	0.034214558 	0.72069862
0.0028944724 	-0.0086928989 	0.034214558 	0.72069862
0.0029145729 	-0.0079846727 	0.035257021 	0.71472034
0.0029346734 	-0.0079846727 	0.035257021 	0.71472034
0.0029547739 	-0.007943817 	0.038159887 	0.70784694
0.0029748744 	-0.007943817 	0.038159887 	0.70784694
0.0029949749 	-0.0084323238 	0.042124472 	0.69997464
0.0030150754 	-0.009133768 	0.046289938 	0.69123454
0.0030351759 	-0.009133768 	0.046289938 	0.69123454
0.0030552764 	-0.00972482 	0.049876705 	0.68199795
0.0030753769 	-0.00972482 	0.049876705 	0.68199795
0.0030954774 	-0.0098899991 	0.052327248 	0.67282079
0.0031155779 	-0.0094179461 	0.053352521 	0.66441333
0.0031356784 	-0.0094179461 	0.053352521 	0.66441333
0.0031557789 	-0.0082254921 	0.052899189 	0.65758126
0.0031758794 	-0.0082254921 	0.052899189 	0.65758126
0.0031959799 	-0.0063606799 	0.051060297 	0.65310228
0.0032160804 	-0.0039117239 	0.048042884 	0.65150509
0.0032361809 	-0.0039117239 	0.048042884 	0.65150509
0.0032562814 	-0.0010185698 	0.044126562 	0.65286547
0.0032763819 	0.0020362143 	0.039636735 	0.65674361
0.0032964824 	0.0020362143 	0.039636735 	0.65674361
0.0033165829 	0.0050059864 	0.034890652 	0.6622966
0.0033366834 	0.0077111059 	0.03013912 	0.66852768
0.0033567839 	0.0077111059 	0.03013912 	0.66852768
0.0033768844 	0.009985231 	0.025528235 	0.67455201
0.0033969849 	0.011726089 	0.021100105 	0.67978474
0.0034170854 	0.011726089 	0.021100105 	0.67978474
0.0034371859 	0.012904393 	0.016822398 	0.68399136
0.0034572864 	0.013601554 	0.012644547 	0.68723937
0.0034773869 	0.013963455 	0.008540818 	0.68975536
0.0034974874 	0.013963455 	0.008540818 	0.68975536
0.0035175879 	0.014163867 	0.0045004744 	0.69178538
0.0035376884 	0.014234508 	0.00042716503 	0.69347902
0.0035577889 	0.014044014 	-0.0039221041 	0.69482213
0.0035778894 	0.014044014 	-0.0039221041 	0.69482213
0.0035979899 	0.013502053 	-0.0089026701 	0.69554464
0.0036180905 	0.012617154 	-0.014821953 	0.69507369
0.003638191 	0.011552855 	-0.021748424 	0.69264147
0.0036582915 	0.011552855 	-0.021748424 	0.69264147
0.003678392 	0.010588155 	-0.029384024 	0.68753164
0.0036984925 	0.0099844472 	-0.037054802 	0.67938735
0.003718593 	0.0098552244 	-0.043838056 	0.66838665
0.0037386935 	0.010108562 	-0.048775044 	0.65509592
0.003758794 	0.010496213 	-0.051090686 	0.63996179
0.0037788945 	0.010496213 	-0.051090686 	0.63996179
0.003798995 	0.010722204 	-0.050378298 	0.62258612
0.0038190955 	0.010540442 	-0.04676234 	0.60108943
0.003839196 	0.0098077965 	-0.041021778 	0.57199856
0.0038592965 	0.0085033779 	-0.034501651 	0.53109631
0.003879397 	0.0067331897 	-0.02861203 	0.47522089
0.0038994975 	0.0047261623 	-0.024051336 	0.40409813
0.003919598 	0.0028026209 	-0.020367114 	0.32080646
0.0039396985 	0.0012792953 	-0.016294957 	0.23040343
0.003959799 	0.00034043919 	-0.010710489 	0.13778062
0.0039798995 	-1.5347408e-06 	-0.0035735052 	0.045910018
0.004 	-1.5347408e-06 	-0.0035735052 	0.045910018
