0 	0.012508034 	-0.042093454 	1.0124027
5.5555556e-05 	0.03013863 	-0.033163685 	1.0141151
0.00011111111 	0.034322621 	-0.029135137 	1.0152596
0.00016666667 	0.036194629 	-0.026353391 	1.0158779
0.00022222222 	0.037207188 	-0.023914258 	1.0160367
0.00027777778 	0.037643613 	-0.02169776 	1.0158199
0.00033333333 	0.037518774 	-0.019740246 	1.0153028
0.00038888889 	0.036826859 	-0.018077543 	1.0145445
0.00044444444 	0.035663557 	-0.016733438 	1.0136317
0.0005 	0.034272501 	-0.01575568 	1.0127652
0.00055555556 	0.033013002 	-0.01524023 	1.0123475
0.00061111111 	0.032266772 	-0.015305645 	1.0129934
0.00066666667 	0.032315567 	-0.016008263 	1.0153817
0.00072222222 	0.033249735 	-0.017239852 	1.0199537
0.00077777778 	0.034922399 	-0.018665756 	1.0266025
0.00083333333 	0.037016701 	-0.019853763 	1.0345651
0.00088888889 	0.039056512 	-0.020431392 	1.0425752
0.00094444444 	0.040678589 	-0.020425718 	1.0492705
0.001 	0.041557162 	-0.019969712 	1.0541701
0.0010617199 	0.04147444 	-0.019010897 	1.0561894
0.0011225874 	0.040248484 	-0.017568803 	1.0554302
0.0011826143 	0.037953034 	-0.01575978 	1.0523717
0.0012418122 	0.034564948 	-0.01402281 	1.0475997
0.0013001926 	0.030087872 	-0.012532476 	1.0420699
0.0013577668 	0.024769115 	-0.010433995 	1.0370538
0.0014145458 	0.019174634 	-0.0062616171 	1.0335537
0.0014705407 	0.014012235 	0.00085442162 	1.0315444
0.0015257623 	0.0099381939 	0.010572477 	1.0299067
0.0015802213 	0.0072695093 	0.021649222 	1.0274594
0.0016339282 	0.0057710815 	0.032539387 	1.0241819
0.0016868934 	0.0046839868 	0.041813295 	1.021218
0.0017391271 	0.0031604003 	0.048410096 	1.0194846
0.0017906395 	0.00089880243 	0.052073867 	1.018748
0.0018414404 	-0.0019048611 	0.053363778 	1.0180024
0.0018915398 	-0.0048298289 	0.053392523 	1.0163272
0.0019409473 	-0.0074234392 	0.053314744 	1.013129
0.0019896725 	-0.0092834547 	0.05399298 	1.0082097
0.0020377248 	-0.010116666 	0.055874773 	1.0017429
0.0020851134 	-0.0097850713 	0.058922098 	0.99426892
0.0021318476 	-0.0082988116 	0.062770737 	0.98654338
0.0021779364 	-0.0058093086 	0.066859514 	0.979347
0.0022233887 	-0.0025174667 	0.070610228 	0.97330814
0.0022682133 	0.001294662 	0.073558786 	0.96882463
0.0023124189 	0.0052561471 	0.075427652 	0.96607217
0.0023560139 	0.0090502988 	0.076154917 	0.96502476
0.0023990069 	0.012437573 	0.075832357 	0.96546
0.0024414062 	0.015238025 	0.074664682 	0.96702144
0.0024832199 	0.017392862 	0.072905004 	0.96924237
0.0025244562 	0.018941147 	0.070820279 	0.97163426
0.002565123 	0.019985394 	0.06862929 	0.97375106
0.0026052281 	0.020654137 	0.066473172 	0.97519984
0.0026447794 	0.021072348 	0.064413876 	0.9756256
0.0026837845 	0.021351161 	0.062443428 	0.97475092
0.0027222509 	0.021550956 	0.060441082 	0.97251355
0.0027601861 	0.021589698 	0.058105839 	0.96925493
0.0027975974 	0.021133676 	0.054990718 	0.96579802
0.002834492 	0.019596224 	0.050695277 	0.96328122
0.0028708772 	0.01637138 	0.045175962 	0.96273597
0.0029067598 	0.011256531 	0.038917456 	0.96447343
0.0029421469 	0.0047677397 	0.032727874 	0.96753635
0.0029770452 	-0.0019981579 	0.027147187 	0.96979201
0.0030114616 	-0.0080890991 	0.022145508 	0.96888412
0.0030454028 	-0.013030749 	0.017541415 	0.963328
0.0030788752 	-0.016823749 	0.013523079 	0.95301216
0.0031118853 	-0.019924814 	0.010645324 	0.93886447
0.0031444395 	-0.022784174 	0.0094349091 	0.9220722
0.0031765442 	-0.025648794 	0.010304072 	0.9038842
0.0032082055 	-0.028544978 	0.013604978 	0.88540773
0.0032394295 	-0.031272641 	0.019614136 	0.86743272
0.0032702223 	-0.033504907 	0.028194974 	0.85043031
0.0033005899 	-0.03500274 	0.038201972 	0.83452768
0.0033305381 	-0.035675539 	0.047312248 	0.8195951
0.0033600727 	-0.035580757 	0.053107564 	0.80534861
0.0033891994 	-0.034948897 	0.054379842 	0.79133492
0.0034179239 	-0.033952368 	0.051549001 	0.77715831
0.0034462517 	-0.032609925 	0.046018213 	0.76281199
0.0034741882 	-0.030824204 	0.039165552 	0.74875162
0.003501739 	-0.028502615 	0.031687228 	0.73569202
0.0035289093 	-0.025633663 	0.023648368 	0.72436086
0.0035557043 	-0.022248363 	0.014974853 	0.71527432
0.0035821293 	-0.018502866 	0.0058605694 	0.70843833
0.0036081894 	-0.014683105 	-0.0031549336 	0.70313299
0.0036338895 	-0.011112795 	-0.011460621 	0.69794031
0.0036592348 	-0.0079789775 	-0.018518878 	0.69105116
0.00368423 	-0.0053487073 	-0.023926687 	0.68059089
0.00370888 	-0.0032732618 	-0.027413425 	0.6648186
0.0037331896 	-0.0017396776 	-0.028843594 	0.64229761
0.0037571635 	-0.00070548378 	-0.028268314 	0.61197865
0.0037808063 	-9.8613245e-05 	-0.025971445 	0.57324586
0.0038041226 	0.00017430078 	-0.022458743 	0.52600162
0.0038271169 	0.00022068491 	-0.018351605 	0.47085134
0.0038497936 	0.00014628774 	-0.014225233 	0.40929643
0.0038721572 	2.2596035e-05 	-0.010483776 	0.34368288
0.0038942119 	-0.00010180119 	-0.0073337587 	0.27673818
0.003915962 	-0.00018896702 	-0.0048273634 	0.21088556
0.0039374118 	-0.00021177147 	-0.0029078411 	0.14769845
0.0039585653 	-0.00015359029 	-0.0014561191 	0.087620426
0.0039794267 	-3.1974537e-05 	-0.0003622389 	0.029650468
0.004 	-3.3353142e-06 	-0.0017459075 	0.02980557
