0 	0.061867227 	-0.014708062 	1.0066951
2.0100503e-05 	0.061867227 	-0.014708062 	1.0066951
4.0201005e-05 	0.061867227 	-0.014708062 	1.0066951
6.0301508e-05 	0.0465288 	-0.039295529 	1.0061082
8.040201e-05 	0.0465288 	-0.039295529 	1.0061082
0.00010050251 	0.0465288 	-0.039295529 	1.0061082
0.00012060302 	0.038117496 	-0.041418553 	1.0060325
0.00014070352 	0.038117496 	-0.041418553 	1.0060325
0.00016080402 	0.038117496 	-0.041418553 	1.0060325
0.00018090452 	0.031540671 	-0.03819937 	1.0062012
0.00020100503 	0.031540671 	-0.03819937 	1.0062012
0.00022110553 	0.031540671 	-0.03819937 	1.0062012
0.00024120603 	0.024802553 	-0.031661031 	1.0062681
0.00026130653 	0.024802553 	-0.031661031 	1.0062681
0.00028140704 	0.017194544 	-0.022026653 	1.0056078
0.00030150754 	0.017194544 	-0.022026653 	1.0056078
0.00032160804 	0.017194544 	-0.022026653 	1.0056078
0.00034170854 	0.0087907588 	-0.0092233072 	1.0027194
0.00036180905 	0.0087907588 	-0.0092233072 	1.0027194
0.00038190955 	0.0087907588 	-0.0092233072 	1.0027194
0.00040201005 	0.00018339139 	0.0064751174 	0.99533613
0.00042211055 	0.00018339139 	0.0064751174 	0.99533613
0.00044221106 	0.00018339139 	0.0064751174 	0.99533613
0.00046231156 	-0.0080003848 	0.023645295 	0.98224852
0.00048241206 	-0.0080003848 	0.023645295 	0.98224852
0.00050251256 	-0.01541413 	0.039353026 	0.96519168
0.00052261307 	-0.01541413 	0.039353026 	0.96519168
0.00054271357 	-0.01541413 	0.039353026 	0.96519168
0.00056281407 	-0.022050617 	0.050398953 	0.94815575
0.00058291457 	-0.022050617 	0.050398953 	0.94815575
0.00060301508 	-0.022050617 	0.050398953 	0.94815575
0.00062311558 	-0.028282173 	0.055489921 	0.93490703
0.00064321608 	-0.028282173 	0.055489921 	0.93490703
0.00066331658 	-0.028282173 	0.055489921 	0.93490703
0.00068341709 	-0.034739421 	0.05613565 	0.92707698
0.00070351759 	-0.034739421 	0.05613565 	0.92707698
0.00072361809 	-0.041907414 	0.055218394 	0.92424295
0.00074371859 	-0.041907414 	0.055218394 	0.92424295
0.0007638191 	-0.041907414 	0.055218394 	0.92424295
0.0007839196 	-0.049747531 	0.054558466 	0.92529709
0.0008040201 	-0.049747531 	0.054558466 	0.92529709
0.0008241206 	-0.049747531 	0.054558466 	0.92529709
0.00084422111 	-0.05772247 	0.053953766 	0.92884041
0.00086432161 	-0.05772247 	0.053953766 	0.92884041
0.00088442211 	-0.05772247 	0.053953766 	0.92884041
0.00090452261 	-0.065158825 	0.052367254 	0.93309632
0.00092462312 	-0.065158825 	0.052367254 	0.93309632
0.00094472362 	-0.071519828 	0.049556655 	0.93666384
0.00096482412 	-0.071519828 	0.049556655 	0.93666384
0.00098492462 	-0.071519828 	0.049556655 	0.93666384
0.0010050251 	-0.076922372 	0.045984212 	0.93905983
0.0010251256 	-0.076922372 	0.045984212 	0.93905983
0.0010452261 	-0.076922372 	0.045984212 	0.93905983
0.0010653266 	-0.081165156 	0.042531489 	0.93931121
0.0010854271 	-0.081165156 	0.042531489 	0.93931121
0.0011055276 	-0.081165156 	0.042531489 	0.93931121
0.0011256281 	-0.083970219 	0.040513067 	0.93731543
0.0011457286 	-0.083970219 	0.040513067 	0.93731543
0.0011658291 	-0.081657523 	0.045179658 	0.94993534
0.0011859296 	-0.08317752 	0.042509424 	0.94867366
0.0012060302 	-0.085116318 	0.039777105 	0.93297276
0.0012261307 	-0.085116318 	0.039777105 	0.93297276
0.0012462312 	-0.084626842 	0.040494671 	0.9267412
0.0012663317 	-0.084626842 	0.040494671 	0.9267412
0.0012864322 	-0.084626842 	0.040494671 	0.9267412
0.0013065327 	-0.082563388 	0.042456665 	0.91933739
0.0013266332 	-0.082563388 	0.042456665 	0.91933739
0.0013467337 	-0.082563388 	0.042456665 	0.91933739
0.0013668342 	-0.079138789 	0.045301804 	0.91157676
0.0013869347 	-0.079138789 	0.045301804 	0.91157676
0.0014070352 	-0.079138789 	0.045301804 	0.91157676
0.0014271357 	-0.074717608 	0.048483831 	0.9042837
0.0014472362 	-0.074717608 	0.048483831 	0.9042837
0.0014673367 	-0.074717608 	0.048483831 	0.9042837
0.0014874372 	-0.069383166 	0.047196033 	0.92843847
0.0015075377 	-0.069383166 	0.047196033 	0.92843847
0.0015276382 	-0.063760939 	0.049380466 	0.92453477
0.0015477387 	-0.064472976 	0.05423936 	0.89314331
0.0015678392 	-0.064472976 	0.05423936 	0.89314331
0.0015879397 	-0.059136927 	0.05656083 	0.8894717
0.0016080402 	-0.059136927 	0.05656083 	0.8894717
0.0016281407 	-0.059136927 	0.05656083 	0.8894717
0.0016482412 	-0.053793834 	0.058529128 	0.88686767
0.0016683417 	-0.053793834 	0.058529128 	0.88686767
0.0016884422 	-0.048472972 	0.060110852 	0.88519916
0.0017085427 	-0.048472972 	0.060110852 	0.88519916
0.0017286432 	-0.048472972 	0.060110852 	0.88519916
0.0017487437 	-0.043199706 	0.061199234 	0.88429487
0.0017688442 	-0.043199706 	0.061199234 	0.88429487
0.0017889447 	-0.043199706 	0.061199234 	0.88429487
0.0018090452 	-0.038066334 	0.061697925 	0.88406369
0.0018291457 	-0.038066334 	0.061697925 	0.88406369
0.0018492462 	-0.033172688 	0.06154185 	0.88446692
0.0018693467 	-0.033172688 	0.06154185 	0.88446692
0.0018894472 	-0.033172688 	0.06154185 	0.88446692
0.0019095477 	-0.028665033 	0.060731466 	0.88540081
0.0019296482 	-0.028665033 	0.060731466 	0.88540081
0.0019497487 	-0.024678195 	0.05932115 	0.88688032
0.0019698492 	-0.022667069 	0.053615242 	0.91805202
0.0019899497 	-0.019115353 	0.052717064 	0.91973731
0.0020100503 	-0.021234514 	0.057406401 	0.888897
0.0020301508 	-0.021234514 	0.057406401 	0.888897
0.0020502513 	-0.018431374 	0.055042942 	0.89145882
0.0020703518 	-0.018431374 	0.055042942 	0.89145882
0.0020904523 	-0.01637746 	0.052270125 	0.89456703
0.0021105528 	-0.01637746 	0.052270125 	0.89456703
0.0021306533 	-0.01637746 	0.052270125 	0.89456703
0.0021507538 	-0.015128764 	0.049073735 	0.89810813
0.0021708543 	-0.015128764 	0.049073735 	0.89810813
0.0021909548 	-0.014705305 	0.045428988 	0.90178707
0.0022110553 	-0.014705305 	0.045428988 	0.90178707
0.0022311558 	-0.015093 	0.041286027 	0.90495536
0.0022512563 	-0.015093 	0.041286027 	0.90495536
0.0022713568 	-0.016187842 	0.036576234 	0.90667359
0.0022914573 	-0.016187842 	0.036576234 	0.90667359
0.0023115578 	-0.016187842 	0.036576234 	0.90667359
0.0023316583 	-0.017839954 	0.031227084 	0.90581127
0.0023517588 	-0.017839954 	0.031227084 	0.90581127
0.0023718593 	-0.019898523 	0.025228645 	0.90143379
0.0023919598 	-0.019898523 	0.025228645 	0.90143379
0.0024120603 	-0.022219721 	0.018661108 	0.89313841
0.0024321608 	-0.022219721 	0.018661108 	0.89313841
0.0024522613 	-0.024663984 	0.011719384 	0.88132274
0.0024723618 	-0.024663984 	0.011719384 	0.88132274
0.0024924623 	-0.027078919 	0.0047108489 	0.86717029
0.0025125628 	-0.027078919 	0.0047108489 	0.86717029
0.0025326633 	-0.029363546 	-0.0020753876 	0.85221761
0.0025527638 	-0.029363546 	-0.0020753876 	0.85221761
0.0025728643 	-0.031465177 	-0.0084488349 	0.83786389
0.0025929648 	-0.031465177 	-0.0084488349 	0.83786389
0.0026130653 	-0.033287626 	-0.014303545 	0.82508657
0.0026331658 	-0.033287626 	-0.014303545 	0.82508657
0.0026532663 	-0.034718534 	-0.019558504 	0.81441457
0.0026733668 	-0.034718534 	-0.019558504 	0.81441457
0.0026934673 	-0.035692947 	-0.024086292 	0.80604938
0.0027135678 	-0.035692947 	-0.024086292 	0.80604938
0.0027336683 	-0.036163774 	-0.027676564 	0.79995054
0.0027537688 	-0.036163774 	-0.027676564 	0.79995054
0.0027738693 	-0.036108963 	-0.030151163 	0.79581161
0.0027939698 	-0.036108963 	-0.030151163 	0.79581161
0.0028140704 	-0.03550591 	-0.031476272 	0.79300676
0.0028341709 	-0.03550591 	-0.031476272 	0.79300676
0.0028542714 	-0.034352488 	-0.031827987 	0.7906147
0.0028743719 	-0.032696542 	-0.031538912 	0.78760169
0.0028944724 	-0.032696542 	-0.031538912 	0.78760169
0.0029145729 	-0.030641365 	-0.030951673 	0.78312797
0.0029346734 	-0.030641365 	-0.030951673 	0.78312797
0.0029547739 	-0.028352066 	-0.030289129 	0.77679089
0.0029748744 	-0.028352066 	-0.030289129 	0.77679089
0.0029949749 	-0.026028786 	-0.029594853 	0.76867532
0.0030150754 	-0.023838052 	-0.028735386 	0.75917437
0.0030351759 	-0.023838052 	-0.028735386 	0.75917437
0.0030552764 	-0.021835447 	-0.027438675 	0.74869662
0.0030753769 	-0.021835447 	-0.027438675 	0.74869662
0.0030954774 	-0.019926563 	-0.025359427 	0.73743236
0.0031155779 	-0.01790863 	-0.022176701 	0.72528022
0.0031356784 	-0.01790863 	-0.022176701 	0.72528022
0.0031557789 	-0.015551405 	-0.01771958 	0.71198144
0.0031758794 	-0.015551405 	-0.01771958 	0.71198144
0.0031959799 	-0.012676012 	-0.012052104 	0.69734702
0.0032160804 	-0.0092457735 	-0.005485719 	0.68145057
0.0032361809 	-0.0092457735 	-0.005485719 	0.68145057
0.0032562814 	-0.0053710803 	0.0014712443 	0.66469459
0.0032763819 	-0.0011836657 	0.0082153048 	0.64775633
0.0032964824 	-0.0011836657 	0.0082153048 	0.64775633
0.0033165829 	0.0030797099 	0.014162983 	0.63144341
0.0033366834 	0.0071171116 	0.01884052 	0.61654239
0.0033567839 	0.0071171116 	0.01884052 	0.61654239
0.0033768844 	0.010699592 	0.021949728 	0.60370581
0.0033969849 	0.013622359 	0.023375959 	0.59338031
0.0034170854 	0.013622359 	0.023375959 	0.59338031
0.0034371859 	0.015734275 	0.023171846 	0.585769
0.0034572864 	0.016945463 	0.021518727 	0.5808243
0.0034773869 	0.017229717 	0.018668813 	0.57823818
0.0034974874 	0.017229717 	0.018668813 	0.57823818
0.0035175879 	0.016619382 	0.014885495 	0.577402
0.0035376884 	0.015195243 	0.010399869 	0.57733964
0.0035577889 	0.013088274 	0.0053748645 	0.57666501
0.0035778894 	0.013088274 	0.0053748645 	0.57666501
0.0035979899 	0.0104484 	-0.0001235554 	0.57362134
0.0036180905 	0.0074654863 	-0.0061179153 	0.56631627
0.003638191 	0.0043821457 	-0.01262029 	0.55316154
0.0036582915 	0.0043821457 	-0.01262029 	0.55316154
0.003678392 	0.0014499132 	-0.019479144 	0.53334964
0.0036984925 	-0.0011002694 	-0.026253601 	0.50715075
0.003718593 	-0.0031010182 	-0.032239157 	0.47582786
0.0037386935 	-0.0044651249 	-0.036682122 	0.44119673
0.003758794 	-0.0051880726 	-0.039050193 	0.40507294
0.0037788945 	-0.0051880726 	-0.039050193 	0.40507294
0.003798995 	-0.0053377249 	-0.039192287 	0.36883932
0.0038190955 	-0.0050314521 	-0.037329152 	0.33322436
0.003839196 	-0.004408425 	-0.033929979 	0.29828287
0.0038592965 	-0.0036053841 	-0.029557016 	0.26353519
0.003879397 	-0.0027412129 	-0.024732608 	0.22820172
0.0038994975 	-0.0019102749 	-0.019851538 	0.19146048
0.003919598 	-0.0011819513 	-0.01514263 	0.15266972
0.0039396985 	-0.00060423761 	-0.010674105 	0.11152592
0.003959799 	-0.00020859266 	-0.0063904676 	0.068147399
0.0039798995 	-1.6410213e-05 	-0.0021643142 	0.023077416
0.004 	-1.6410213e-05 	-0.0021643142 	0.023077416
