0 	-0.018084071 	-0.064933951 	1.0084471
5.5555556e-05 	0.0055379359 	-0.069455288 	1.0111371
0.00011111111 	0.0061508641 	-0.067096374 	1.0171008
0.00016666667 	0.0013818025 	-0.062477497 	1.024521
0.00022222222 	-0.0050212645 	-0.056970944 	1.0308749
0.00027777778 	-0.011566891 	-0.051307537 	1.0353733
0.00033333333 	-0.017730267 	-0.045421616 	1.0390965
0.00038888889 	-0.023488798 	-0.039135667 	1.0431759
0.00044444444 	-0.028914704 	-0.032562496 	1.0476369
0.0005 	-0.033984248 	-0.026063379 	1.0516839
0.00055555556 	-0.0386071 	-0.020077376 	1.0544379
0.00061111111 	-0.042691435 	-0.014968338 	1.0554588
0.00066666667 	-0.046181103 	-0.010883634 	1.0549468
0.00072222222 	-0.049048849 	-0.0076867925 	1.0536042
0.00077777778 	-0.051285617 	-0.0050390074 	1.0521878
0.00083333333 	-0.052935253 	-0.0025963311 	1.0510587
0.00088888889 	-0.05410483 	-0.0001864548 	1.0500398
0.00094444444 	-0.05494061 	0.0021232898 	1.0486269
0.001 	-0.055705912 	0.0042564828 	1.0460744
0.0010617199 	-0.056601057 	0.0054276373 	1.0414766
0.0011225874 	-0.057820559 	0.0050123729 	1.0345389
0.0011826143 	-0.059383938 	0.0023717799 	1.0248984
0.0012418122 	-0.061282196 	-0.0028805967 	1.01245
0.0013001926 	-0.063374769 	-0.0108481 	0.99750247
0.0013577668 	-0.0654359 	-0.021094932 	0.98086538
0.0014145458 	-0.067155881 	-0.032674529 	0.96364339
0.0014705407 	-0.06820121 	-0.044408999 	0.94690714
0.0015257623 	-0.06828318 	-0.055295307 	0.93145404
0.0015802213 	-0.067325639 	-0.064727154 	0.91773299
0.0016339282 	-0.065542749 	-0.072342669 	0.90568953
0.0016868934 	-0.063400293 	-0.077703004 	0.89472649
0.0017391271 	-0.061606883 	-0.080140786 	0.88399409
0.0017906395 	-0.060796361 	-0.078900908 	0.87273211
0.0018414404 	-0.061321585 	-0.073743429 	0.86037955
0.0018915398 	-0.063218475 	-0.065343366 	0.8464748
0.0019409473 	-0.066158825 	-0.054914297 	0.83091748
0.0019896725 	-0.069453769 	-0.043444378 	0.81426355
0.0020377248 	-0.072141983 	-0.032000708 	0.79813007
0.0020851134 	-0.073185698 	-0.022587425 	0.78497699
0.0021318476 	-0.071671641 	-0.017292368 	0.77663526
0.0021779364 	-0.067474322 	-0.016417159 	0.77296582
0.0022233887 	-0.061512152 	-0.018583305 	0.77246505
0.0022682133 	-0.054919956 	-0.022459539 	0.77365939
0.0023124189 	-0.048310249 	-0.027497432 	0.77552998
0.0023560139 	-0.04175305 	-0.033567748 	0.77739876
0.0023990069 	-0.035183852 	-0.040637502 	0.77878535
0.0024414062 	-0.028554749 	-0.048641708 	0.77931164
0.0024832199 	-0.021758054 	-0.057457812 	0.77867807
0.0025244562 	-0.014641528 	-0.066840949 	0.77668546
0.002565123 	-0.0070139179 	-0.07629646 	0.77316278
0.0026052281 	0.0013859279 	-0.084894244 	0.7677993
0.0026447794 	0.010736756 	-0.091131111 	0.76000078
0.0026837845 	0.020967389 	-0.093129978 	0.7492236
0.0027222509 	0.031642509 	-0.089321177 	0.73564921
0.0027601861 	0.041877676 	-0.079384278 	0.72079371
0.0027975974 	0.050697986 	-0.064483698 	0.70718035
0.002834492 	0.057523364 	-0.046460666 	0.69722121
0.0028708772 	0.062301907 	-0.026976799 	0.6923225
0.0029067598 	0.065219704 	-0.0071967599 	0.69271066
0.0029421469 	0.066930127 	0.012122717 	0.69775687
0.0029770452 	0.068013626 	0.030576285 	0.70632806
0.0030114616 	0.068439685 	0.047954225 	0.71725864
0.0030454028 	0.068232197 	0.064079301 	0.72957331
0.0030788752 	0.067399082 	0.07879476 	0.74254621
0.0031118853 	0.065873067 	0.091909556 	0.75564618
0.0031444395 	0.063535387 	0.10324432 	0.76844656
0.0031765442 	0.060286004 	0.11256945 	0.78053262
0.0032082055 	0.056079461 	0.11978001 	0.79147408
0.0032394295 	0.050961317 	0.12491759 	0.80088426
0.0032702223 	0.045119378 	0.1283229 	0.80854602
0.0033005899 	0.03889491 	0.13055183 	0.81447458
0.0033305381 	0.032727032 	0.13209904 	0.81882742
0.0033600727 	0.027039301 	0.1330402 	0.82170716
0.0033891994 	0.022111514 	0.13291758 	0.82303743
0.0034179239 	0.018009716 	0.13102835 	0.82261504
0.0034462517 	0.014624985 	0.12692632 	0.82016308
0.0034741882 	0.011781761 	0.12076653 	0.8150843
0.003501739 	0.0093576344 	0.11327807 	0.80591377
0.0035289093 	0.0073512165 	0.10544925 	0.78996217
0.0035557043 	0.0058515337 	0.098195178 	0.76382078
0.0035821293 	0.0049142895 	0.09220341 	0.72496683
0.0036081894 	0.0044236639 	0.087861277 	0.67376269
0.0036338895 	0.0040760348 	0.085077328 	0.61434708
0.0036592348 	0.0035507278 	0.08314303 	0.55334991
0.00368423 	0.0027174961 	0.08097374 	0.49715275
0.00370888 	0.0016809517 	0.077656201 	0.44964658
0.0037331896 	0.00065591723 	0.072846908 	0.41164035
0.0037571635 	-0.00017693711 	0.066772396 	0.3815533
0.0037808063 	-0.00073326442 	0.059956554 	0.35650493
0.0038041226 	-0.0010138112 	0.052917508 	0.33326766
0.0038271169 	-0.0010696888 	0.045983426 	0.30893153
0.0038497936 	-0.00097149134 	0.039269571 	0.28128738
0.0038721572 	-0.00078782951 	0.032756313 	0.24898196
0.0038942119 	-0.00057437363 	0.026392067 	0.21150894
0.003915962 	-0.00037001187 	0.020147328 	0.16910888
0.0039374118 	-0.00019936652 	0.014009426 	0.12265753
0.0039585653 	-7.6105371e-05 	0.0079984785 	0.073614267
0.0039794267 	-1.4314393e-05 	0.0023214388 	0.024018873
0.004 	-3.8998716e-05 	0.0043070931 	0.013596658
