0 	-0.0044565094 	0.0089669123 	1.0975491
5.5555556e-05 	-0.0011021285 	0.018548831 	1.0860798
0.00011111111 	0.0030872744 	0.026324843 	1.0727532
0.00016666667 	0.0093583035 	0.029664842 	1.057653
0.00022222222 	0.017259057 	0.025439383 	1.0412989
0.00027777778 	0.024996273 	0.013376397 	1.0250328
0.00033333333 	0.029559377 	-0.0024307285 	1.0119696
0.00038888889 	0.028985609 	-0.01727562 	1.0065159
0.00044444444 	0.024545206 	-0.029990131 	1.0101333
0.0005 	0.018854343 	-0.041646241 	1.0196752
0.00055555556 	0.013332734 	-0.052395568 	1.03041
0.00061111111 	0.0082082627 	-0.061223764 	1.0393393
0.00066666667 	0.003584187 	-0.067562423 	1.0458339
0.00072222222 	-0.0001858698 	-0.071789207 	1.0503513
0.00077777778 	-0.0026967649 	-0.074655271 	1.0532893
0.00083333333 	-0.003665994 	-0.076852007 	1.0547089
0.00088888889 	-0.0030013459 	-0.078951271 	1.0545403
0.00094444444 	-0.00088665385 	-0.081513808 	1.0527961
0.001 	0.0028255259 	-0.085388056 	1.0494465
0.0010617199 	0.0076490707 	-0.0912275 	1.0443329
0.0011225874 	0.012902414 	-0.098546796 	1.0379319
0.0011826143 	0.018088206 	-0.10661975 	1.0300899
0.0012418122 	0.023084251 	-0.11390849 	1.0204927
0.0013001926 	0.027498809 	-0.11812755 	1.0089329
0.0013577668 	0.03077205 	-0.11703597 	0.99555175
0.0014145458 	0.032460108 	-0.10966618 	0.98093855
0.0014705407 	0.032479285 	-0.096545878 	0.96616274
0.0015257623 	0.031047617 	-0.07892111 	0.95300151
0.0015802213 	0.028526904 	-0.057916798 	0.94368529
0.0016339282 	0.025271005 	-0.034112504 	0.94022035
0.0016868934 	0.021368427 	-0.0077229894 	0.94358117
0.0017391271 	0.016817505 	0.020878087 	0.95313569
0.0017906395 	0.011602881 	0.05066741 	0.96610797
0.0018414404 	0.0056153 	0.080040485 	0.97778627
0.0018915398 	-0.0012045476 	0.10711821 	0.98370342
0.0019409473 	-0.008923994 	0.1300034 	0.98290271
0.0019896725 	-0.017441747 	0.14663507 	0.97881187
0.0020377248 	-0.026300393 	0.15512326 	0.97637029
0.0020851134 	-0.035251873 	0.15494756 	0.97765803
0.0021318476 	-0.044658863 	0.14875114 	0.97985664
0.0021779364 	-0.055093179 	0.14222581 	0.97750761
0.0022233887 	-0.066418308 	0.14040419 	0.96852129
0.0022682133 	-0.077264045 	0.14408392 	0.95694165
0.0023124189 	-0.085916603 	0.1506228 	0.94752269
0.0023560139 	-0.091557863 	0.15697797 	0.9407676
0.0023990069 	-0.094431361 	0.1609911 	0.93506362
0.0024414062 	-0.09515502 	0.16102891 	0.92993259
0.0024832199 	-0.094221181 	0.15580849 	0.92580085
0.0025244562 	-0.091871126 	0.1447012 	0.92283136
0.002565123 	-0.088269447 	0.12798572 	0.9208072
0.0026052281 	-0.08365033 	0.10679919 	0.91940623
0.0026447794 	-0.07836692 	0.082820226 	0.91833999
0.0026837845 	-0.072881395 	0.057813239 	0.91740179
0.0027222509 	-0.067624561 	0.033302183 	0.91652893
0.0027601861 	-0.063074787 	0.010456073 	0.91581487
0.0027975974 	-0.059430881 	-0.0098297565 	0.91520273
0.002834492 	-0.056962862 	-0.026948578 	0.91400657
0.0028708772 	-0.056268084 	-0.040742223 	0.91057035
0.0029067598 	-0.057728119 	-0.051500451 	0.90253633
0.0029421469 	-0.061149185 	-0.059863105 	0.88824221
0.0029770452 	-0.065726794 	-0.066410042 	0.86853951
0.0030114616 	-0.07041908 	-0.071193546 	0.84722232
0.0030454028 	-0.074323877 	-0.073517091 	0.82887592
0.0030788752 	-0.07684261 	-0.072449459 	0.81589801
0.0031118853 	-0.077639134 	-0.067682827 	0.80737282
0.0031444395 	-0.07669205 	-0.059834579 	0.8004283
0.0031765442 	-0.074114578 	-0.04983763 	0.79263852
0.0032082055 	-0.070173015 	-0.038299247 	0.78369587
0.0032394295 	-0.065380223 	-0.025376302 	0.77535485
0.0032702223 	-0.060278404 	-0.011176877 	0.76987916
0.0033005899 	-0.055241471 	0.0036436124 	0.76827686
0.0033305381 	-0.050287101 	0.017731189 	0.7698065
0.0033600727 	-0.045411841 	0.029590056 	0.77288901
0.0033891994 	-0.041018313 	0.038365549 	0.77635662
0.0034179239 	-0.037617955 	0.044090282 	0.78004119
0.0034462517 	-0.035722974 	0.047485968 	0.78401474
0.0034741882 	-0.035403689 	0.049500829 	0.78779996
0.003501739 	-0.036211597 	0.050928358 	0.78976587
0.0035289093 	-0.037256889 	0.052362932 	0.78701263
0.0035557043 	-0.037450628 	0.054072448 	0.7761325
0.0035821293 	-0.03590274 	0.055771262 	0.75442515
0.0036081894 	-0.032125587 	0.056677219 	0.72059594
0.0036338895 	-0.026166332 	0.055979304 	0.67483938
0.0036592348 	-0.01867654 	0.053386593 	0.61908977
0.00368423 	-0.010838551 	0.049281158 	0.55754589
0.00370888 	-0.0040433155 	0.044340777 	0.49624903
0.0037331896 	0.00072938513 	0.03908786 	0.44083298
0.0037571635 	0.0033881164 	0.033851153 	0.39398969
0.0037808063 	0.004476318 	0.028924057 	0.35492044
0.0038041226 	0.0046450106 	0.024605875 	0.32081457
0.0038271169 	0.0043832553 	0.021070703 	0.28867128
0.0038497936 	0.003932895 	0.018294576 	0.2562287
0.0038721572 	0.0033630251 	0.016091764 	0.22210777
0.0038942119 	0.0026790117 	0.014180617 	0.18565738
0.003915962 	0.0019001009 	0.012211046 	0.1468017
0.0039374118 	0.0011012355 	0.0097690065 	0.10595214
0.0039585653 	0.00042439152 	0.0064623203 	0.063895647
0.0039794267 	4.210826e-05 	0.0022204768 	0.021466122
0.004 	4.210826e-05 	0.0022204768 	0.021466122
