0 	-0.0077884586 	0.015570223 	1.1396495
2.0100503e-05 	-0.014260908 	-0.011356973 	1.1431205
4.0201005e-05 	-0.014260908 	-0.011356973 	1.1431205
6.0301508e-05 	-0.0050028091 	-0.018233038 	1.1454065
8.040201e-05 	-0.0050028091 	-0.018233038 	1.1454065
0.00010050251 	-0.0050028091 	-0.018233038 	1.1454065
0.00012060302 	-0.00011413626 	-0.0197203 	1.1462551
0.00014070352 	-0.00011413626 	-0.0197203 	1.1462551
0.00016080402 	-0.00011413626 	-0.0197203 	1.1462551
0.00018090452 	0.003316514 	-0.020547932 	1.1454706
0.00020100503 	0.003316514 	-0.020547932 	1.1454706
0.00022110553 	0.003316514 	-0.020547932 	1.1454706
0.00024120603 	0.0059867552 	-0.021323466 	1.1431111
0.00026130653 	0.0059867552 	-0.021323466 	1.1431111
0.00028140704 	0.0080157646 	-0.022149389 	1.1395185
0.00030150754 	0.0080157646 	-0.022149389 	1.1395185
0.00032160804 	0.0080157646 	-0.022149389 	1.1395185
0.00034170854 	0.0093048089 	-0.023045479 	1.135171
0.00036180905 	0.0093048089 	-0.023045479 	1.135171
0.00038190955 	0.0093048089 	-0.023045479 	1.135171
0.00040201005 	0.0096154527 	-0.024080605 	1.1303195
0.00042211055 	0.0096154527 	-0.024080605 	1.1303195
0.00044221106 	0.0096154527 	-0.024080605 	1.1303195
0.00046231156 	0.0085944247 	-0.025421929 	1.1243488
0.00048241206 	0.0085944247 	-0.025421929 	1.1243488
0.00050251256 	0.0057863886 	-0.027260522 	1.1149043
0.00052261307 	0.0057863886 	-0.027260522 	1.1149043
0.00054271357 	0.0057863886 	-0.027260522 	1.1149043
0.00056281407 	0.00068558304 	-0.029353761 	1.0977684
0.00058291457 	0.00068558304 	-0.029353761 	1.0977684
0.00060301508 	0.00068558304 	-0.029353761 	1.0977684
0.00062311558 	-0.0071351487 	-0.030328758 	1.0698467
0.00064321608 	-0.0071351487 	-0.030328758 	1.0698467
0.00066331658 	-0.0071351487 	-0.030328758 	1.0698467
0.00068341709 	-0.01747617 	-0.028715664 	1.0347934
0.00070351759 	-0.01747617 	-0.028715664 	1.0347934
0.00072361809 	-0.028690335 	-0.026226378 	1.0024713
0.00074371859 	-0.028690335 	-0.026226378 	1.0024713
0.0007638191 	-0.028690335 	-0.026226378 	1.0024713
0.0007839196 	-0.037884308 	-0.027619111 	0.97966066
0.0008040201 	-0.037884308 	-0.027619111 	0.97966066
0.0008241206 	-0.037884308 	-0.027619111 	0.97966066
0.00084422111 	-0.042732598 	-0.035509817 	0.96532525
0.00086432161 	-0.042732598 	-0.035509817 	0.96532525
0.00088442211 	-0.042732598 	-0.035509817 	0.96532525
0.00090452261 	-0.043284528 	-0.047774856 	0.9551434
0.00092462312 	-0.043284528 	-0.047774856 	0.9551434
0.00094472362 	-0.041283538 	-0.060406869 	0.94638631
0.00096482412 	-0.041283538 	-0.060406869 	0.94638631
0.00098492462 	-0.040095341 	-0.050236118 	0.95299687
0.0010050251 	-0.034528665 	-0.060915368 	0.94469567
0.0010251256 	-0.034528665 	-0.060915368 	0.94469567
0.0010452261 	-0.034528665 	-0.060915368 	0.94469567
0.0010653266 	-0.028905314 	-0.069973114 	0.93623702
0.0010854271 	-0.028905314 	-0.069973114 	0.93623702
0.0011055276 	-0.028905314 	-0.069973114 	0.93623702
0.0011256281 	-0.024517359 	-0.076100598 	0.92792156
0.0011457286 	-0.024517359 	-0.076100598 	0.92792156
0.0011658291 	-0.035323155 	-0.083703887 	0.91984178
0.0011859296 	-0.035420025 	-0.085313062 	0.91122567
0.0012060302 	-0.021644523 	-0.079727552 	0.91997185
0.0012261307 	-0.021644523 	-0.079727552 	0.91997185
0.0012462312 	-0.019919792 	-0.080658949 	0.9131417
0.0012663317 	-0.019919792 	-0.080658949 	0.9131417
0.0012864322 	-0.019919792 	-0.080658949 	0.9131417
0.0013065327 	-0.019015123 	-0.078484791 	0.90836276
0.0013266332 	-0.019015123 	-0.078484791 	0.90836276
0.0013467337 	-0.019015123 	-0.078484791 	0.90836276
0.0013668342 	-0.018658475 	-0.073161124 	0.9061764
0.0013869347 	-0.018658475 	-0.073161124 	0.9061764
0.0014070352 	-0.018658475 	-0.073161124 	0.9061764
0.0014271357 	-0.018662962 	-0.065379185 	0.90640386
0.0014472362 	-0.018662962 	-0.065379185 	0.90640386
0.0014673367 	-0.018662962 	-0.065379185 	0.90640386
0.0014874372 	-0.018902703 	-0.056397997 	0.90833811
0.0015075377 	-0.018902703 	-0.056397997 	0.90833811
0.0015276382 	-0.019256637 	-0.047509597 	0.91116661
0.0015477387 	-0.019256637 	-0.047509597 	0.91116661
0.0015678392 	-0.019256637 	-0.047509597 	0.91116661
0.0015879397 	-0.0195399 	-0.039717323 	0.914274
0.0016080402 	-0.0195399 	-0.039717323 	0.914274
0.0016281407 	-0.0195399 	-0.039717323 	0.914274
0.0016482412 	-0.019484329 	-0.033600089 	0.91738019
0.0016683417 	-0.019484329 	-0.033600089 	0.91738019
0.0016884422 	-0.018828862 	-0.029261075 	0.92053179
0.0017085427 	-0.018828862 	-0.029261075 	0.92053179
0.0017286432 	-0.018828862 	-0.029261075 	0.92053179
0.0017487437 	-0.017430513 	-0.026310106 	0.92389991
0.0017688442 	-0.017430513 	-0.026310106 	0.92389991
0.0017889447 	-0.017430513 	-0.026310106 	0.92389991
0.0018090452 	-0.015238138 	-0.02385577 	0.92750321
0.0018291457 	-0.015238138 	-0.02385577 	0.92750321
0.0018492462 	-0.012167233 	-0.020713618 	0.9311748
0.0018693467 	-0.012167233 	-0.020713618 	0.9311748
0.0018894472 	-0.012167233 	-0.020713618 	0.9311748
0.0019095477 	-0.0080251559 	-0.015870713 	0.93494089
0.0019296482 	-0.0080251559 	-0.015870713 	0.93494089
0.0019497487 	-0.0026740288 	-0.0091000259 	0.93943333
0.0019698492 	-0.0026740288 	-0.0091000259 	0.93943333
0.0019899497 	0.0036951433 	-0.0014046177 	0.94566006
0.0020100503 	0.0036951433 	-0.0014046177 	0.94566006
0.0020301508 	0.0036951433 	-0.0014046177 	0.94566006
0.0020502513 	0.010228962 	0.0052445916 	0.95394741
0.0020703518 	0.010228962 	0.0052445916 	0.95394741
0.0020904523 	0.015751408 	0.0091885134 	0.96304593
0.0021105528 	0.015751408 	0.0091885134 	0.96304593
0.0021306533 	0.015751408 	0.0091885134 	0.96304593
0.0021507538 	0.019855067 	0.010454865 	0.97114716
0.0021708543 	0.019855067 	0.010454865 	0.97114716
0.0021909548 	0.023134295 	0.010555695 	0.9776164
0.0022110553 	0.023134295 	0.010555695 	0.9776164
0.0022311558 	0.026361897 	0.011009232 	0.98297697
0.0022512563 	0.026361897 	0.011009232 	0.98297697
0.0022713568 	0.029939355 	0.012551131 	0.98789536
0.0022914573 	0.029939355 	0.012551131 	0.98789536
0.0023115578 	0.029939355 	0.012551131 	0.98789536
0.0023316583 	0.03380314 	0.015254085 	0.99270808
0.0023517588 	0.03380314 	0.015254085 	0.99270808
0.0023718593 	0.037563547 	0.018864371 	0.99764719
0.0023919598 	0.037563547 	0.018864371 	0.99764719
0.0024120603 	0.04079261 	0.023014669 	1.0029342
0.0024321608 	0.04079261 	0.023014669 	1.0029342
0.0024522613 	0.043213926 	0.027358841 	1.0087101
0.0024723618 	0.043213926 	0.027358841 	1.0087101
0.0024924623 	0.044748961 	0.031636899 	1.0148839
0.0025125628 	0.044748961 	0.031636899 	1.0148839
0.0025326633 	0.04547997 	0.035700771 	1.0211429
0.0025527638 	0.04547997 	0.035700771 	1.0211429
0.0025728643 	0.045589502 	0.039481541 	1.0270644
0.0025929648 	0.045589502 	0.039481541 	1.0270644
0.0026130653 	0.045289569 	0.042959025 	1.0322246
0.0026331658 	0.045289569 	0.042959025 	1.0322246
0.0026532663 	0.044768582 	0.046141707 	1.0362576
0.0026733668 	0.044768582 	0.046141707 	1.0362576
0.0026934673 	0.044179895 	0.049073912 	1.0388797
0.0027135678 	0.044179895 	0.049073912 	1.0388797
0.0027336683 	0.043640016 	0.05185142 	1.0398922
0.0027537688 	0.043640016 	0.05185142 	1.0398922
0.0027738693 	0.04322709 	0.054627034 	1.039187
0.0027939698 	0.04322709 	0.054627034 	1.039187
0.0028140704 	0.04296297 	0.057585522 	1.0367538
0.0028341709 	0.04296297 	0.057585522 	1.0367538
0.0028542714 	0.042815469 	0.060882224 	1.0326924
0.0028743719 	0.042686653 	0.064562677 	1.0272047
0.0028944724 	0.042686653 	0.064562677 	1.0272047
0.0029145729 	0.042424037 	0.068496956 	1.0205789
0.0029346734 	0.042424037 	0.068496956 	1.0205789
0.0029547739 	0.041865305 	0.072369006 	1.0131338
0.0029748744 	0.041865305 	0.072369006 	1.0131338
0.0029949749 	0.040874655 	0.075730233 	1.0051532
0.0030150754 	0.039387499 	0.078106577 	0.99683677
0.0030351759 	0.039387499 	0.078106577 	0.99683677
0.0030552764 	0.037433307 	0.079113092 	0.98827849
0.0030753769 	0.037433307 	0.079113092 	0.98827849
0.0030954774 	0.035142565 	0.078548207 	0.97947486
0.0031155779 	0.032726163 	0.076417546 	0.97034838
0.0031356784 	0.032726163 	0.076417546 	0.97034838
0.0031557789 	0.030428703 	0.072913302 	0.96077434
0.0031758794 	0.030428703 	0.072913302 	0.96077434
0.0031959799 	0.028471729 	0.06834142 	0.95061229
0.0032160804 	0.026990108 	0.063036046 	0.93976404
0.0032361809 	0.026990108 	0.063036046 	0.93976404
0.0032562814 	0.025976655 	0.057281318 	0.92825883
0.0032763819 	0.025260034 	0.051259575 	0.91635157
0.0032964824 	0.025260034 	0.051259575 	0.91635157
0.0033165829 	0.024558016 	0.045019442 	0.90454164
0.0033366834 	0.023596245 	0.038459221 	0.89343019
0.0033567839 	0.023596245 	0.038459221 	0.89343019
0.0033768844 	0.022247584 	0.031335914 	0.88343848
0.0033969849 	0.020609571 	0.023330271 	0.87453804
0.0034170854 	0.020609571 	0.023330271 	0.87453804
0.0034371859 	0.01897876 	0.014170187 	0.866077
0.0034572864 	0.017736388 	0.0037850154 	0.85703051
0.0034773869 	0.017221013 	-0.0075920129 	0.84629903
0.0034974874 	0.017221013 	-0.0075920129 	0.84629903
0.0035175879 	0.017528142 	-0.019416139 	0.83317728
0.0035376884 	0.018469401 	-0.030893514 	0.8176546
0.0035577889 	0.019718938 	-0.041124375 	0.80046661
0.0035778894 	0.019718938 	-0.041124375 	0.80046661
0.0035979899 	0.020848735 	-0.049256209 	0.7828887
0.0036180905 	0.021434299 	-0.054609424 	0.7663516
0.003638191 	0.021168293 	-0.056746254 	0.75195624
0.0036582915 	0.021168293 	-0.056746254 	0.75195624
0.003678392 	0.019935818 	-0.055498263 	0.73998587
0.0036984925 	0.017834102 	-0.050991874 	0.7295378
0.003718593 	0.015136372 	-0.043697756 	0.71839774
0.0037386935 	0.012215165 	-0.034476953 	0.70326584
0.003758794 	0.0094432281 	-0.024539489 	0.68042733
0.0037788945 	0.0094432281 	-0.024539489 	0.68042733
0.003798995 	0.0070956415 	-0.015220752 	0.646832
0.0038190955 	0.0052763852 	-0.0075879618 	0.60121693
0.003839196 	0.0039135254 	-0.0020696069 	0.54455238
0.0038592965 	0.0028626406 	0.0015815951 	0.47944759
0.003879397 	0.0020133824 	0.0039196755 	0.40886675
0.0038994975 	0.0013238998 	0.0053324056 	0.33519499
0.003919598 	0.00078432979 	0.0058582767 	0.26013349
0.0039396985 	0.00039155989 	0.0053616494 	0.18496039
0.003959799 	0.00014235621 	0.0038098573 	0.11054836
0.0039798995 	1.9184981e-05 	0.0014110588 	0.037029979
0.004 	1.9184981e-05 	0.0014110588 	0.037029979
