0 	-0.0022778413 	-0.087161626 	0.98004938
2.0100503e-05 	0.090724845 	-0.00015213685 	0.97527563
4.0201005e-05 	0.090724845 	-0.00015213685 	0.97527563
6.0301508e-05 	0.081932316 	0.040619413 	0.97089844
8.040201e-05 	0.081932316 	0.040619413 	0.97089844
0.00010050251 	0.081932316 	0.040619413 	0.97089844
0.00012060302 	0.075178111 	0.04628042 	0.96701545
0.00014070352 	0.075178111 	0.04628042 	0.96701545
0.00016080402 	0.075178111 	0.04628042 	0.96701545
0.00018090452 	0.069716002 	0.041528697 	0.96382054
0.00020100503 	0.069716002 	0.041528697 	0.96382054
0.00022110553 	0.069716002 	0.041528697 	0.96382054
0.00024120603 	0.063945013 	0.030845069 	0.96162927
0.00026130653 	0.063945013 	0.030845069 	0.96162927
0.00028140704 	0.057330398 	0.016535585 	0.96091327
0.00030150754 	0.057330398 	0.016535585 	0.96091327
0.00032160804 	0.057330398 	0.016535585 	0.96091327
0.00034170854 	0.049919291 	0.00066909843 	0.96215608
0.00036180905 	0.049919291 	0.00066909843 	0.96215608
0.00038190955 	0.049919291 	0.00066909843 	0.96215608
0.00040201005 	0.042168805 	-0.014559636 	0.96532883
0.00042211055 	0.042168805 	-0.014559636 	0.96532883
0.00044221106 	0.042168805 	-0.014559636 	0.96532883
0.00046231156 	0.034763096 	-0.027471167 	0.96943608
0.00048241206 	0.034763096 	-0.027471167 	0.96943608
0.00050251256 	0.02836563 	-0.037268432 	0.97287194
0.00052261307 	0.02836563 	-0.037268432 	0.97287194
0.00054271357 	0.02836563 	-0.037268432 	0.97287194
0.00056281407 	0.023240553 	-0.044123303 	0.97434414
0.00058291457 	0.023240553 	-0.044123303 	0.97434414
0.00060301508 	0.023240553 	-0.044123303 	0.97434414
0.00062311558 	0.019332753 	-0.048665484 	0.97344391
0.00064321608 	0.019332753 	-0.048665484 	0.97344391
0.00066331658 	0.016178682 	-0.048120285 	0.97077646
0.00068341709 	0.014352013 	-0.050484924 	0.9673421
0.00070351759 	0.014352013 	-0.050484924 	0.9673421
0.00072361809 	0.013152001 	-0.051391274 	0.96274818
0.00074371859 	0.013152001 	-0.051391274 	0.96274818
0.0007638191 	0.013152001 	-0.051391274 	0.96274818
0.0007839196 	0.012511589 	-0.051113983 	0.95770705
0.0008040201 	0.012511589 	-0.051113983 	0.95770705
0.0008241206 	0.012511589 	-0.051113983 	0.95770705
0.00084422111 	0.012356552 	-0.049938471 	0.95283679
0.00086432161 	0.012356552 	-0.049938471 	0.95283679
0.00088442211 	0.012356552 	-0.049938471 	0.95283679
0.00090452261 	0.012461511 	-0.050686575 	0.95074666
0.00092462312 	0.012461511 	-0.050686575 	0.95074666
0.00094472362 	0.01278894 	-0.048920648 	0.94692364
0.00096482412 	0.01278894 	-0.048920648 	0.94692364
0.00098492462 	0.013194719 	-0.046183044 	0.94544562
0.0010050251 	0.013487568 	-0.047039485 	0.94419856
0.0010251256 	0.013487568 	-0.047039485 	0.94419856
0.0010452261 	0.013487568 	-0.047039485 	0.94419856
0.0010653266 	0.015734395 	-0.041351593 	0.94215181
0.0010854271 	0.015734395 	-0.041351593 	0.94215181
0.0011055276 	0.015734395 	-0.041351593 	0.94215181
0.0011256281 	0.017878529 	-0.03863361 	0.9418983
0.0011457286 	0.017878529 	-0.03863361 	0.9418983
0.0011658291 	0.017878529 	-0.03863361 	0.9418983
0.0011859296 	0.017863902 	-0.041312052 	0.9416622
0.0012060302 	0.020683652 	-0.035560758 	0.94208617
0.0012261307 	0.020683652 	-0.035560758 	0.94208617
0.0012462312 	0.024147144 	-0.031880636 	0.94251059
0.0012663317 	0.024147144 	-0.031880636 	0.94251059
0.0012864322 	0.024147144 	-0.031880636 	0.94251059
0.0013065327 	0.028171508 	-0.027311255 	0.94318421
0.0013266332 	0.028171508 	-0.027311255 	0.94318421
0.0013467337 	0.028171508 	-0.027311255 	0.94318421
0.0013668342 	0.032560684 	-0.021594573 	0.94427576
0.0013869347 	0.032560684 	-0.021594573 	0.94427576
0.0014070352 	0.032560684 	-0.021594573 	0.94427576
0.0014271357 	0.037063383 	-0.014587678 	0.9460243
0.0014472362 	0.028785649 	-0.024732485 	0.94038763
0.0014673367 	0.028785649 	-0.024732485 	0.94038763
0.0014874372 	0.041388405 	-0.006349685 	0.94868219
0.0015075377 	0.041388405 	-0.006349685 	0.94868219
0.0015276382 	0.045311795 	0.0027872368 	0.9524572
0.0015477387 	0.045311795 	0.0027872368 	0.9524572
0.0015678392 	0.045311795 	0.0027872368 	0.9524572
0.0015879397 	0.048756649 	0.012260062 	0.95729685
0.0016080402 	0.048756649 	0.012260062 	0.95729685
0.0016281407 	0.048756649 	0.012260062 	0.95729685
0.0016482412 	0.051740706 	0.021387042 	0.96267971
0.0016683417 	0.051740706 	0.021387042 	0.96267971
0.0016884422 	0.054279037 	0.029523492 	0.96754291
0.0017085427 	0.054279037 	0.029523492 	0.96754291
0.0017286432 	0.054279037 	0.029523492 	0.96754291
0.0017487437 	0.056259064 	0.03607884 	0.97064752
0.0017688442 	0.056259064 	0.03607884 	0.97064752
0.0017889447 	0.056259064 	0.03607884 	0.97064752
0.0018090452 	0.057406501 	0.040543469 	0.97117824
0.0018291457 	0.057406501 	0.040543469 	0.97117824
0.0018492462 	0.057456063 	0.042460627 	0.96915934
0.0018693467 	0.057456063 	0.042460627 	0.96915934
0.0018894472 	0.057456063 	0.042460627 	0.96915934
0.0019095477 	0.056312615 	0.041542044 	0.96531817
0.0019296482 	0.056312615 	0.041542044 	0.96531817
0.0019497487 	0.054105391 	0.03780985 	0.96055498
0.0019698492 	0.054105391 	0.03780985 	0.96055498
0.0019899497 	0.051162879 	0.031634272 	0.95557034
0.0020100503 	0.051162879 	0.031634272 	0.95557034
0.0020301508 	0.051162879 	0.031634272 	0.95557034
0.0020502513 	0.0478486 	0.023669555 	0.95080333
0.0020703518 	0.0478486 	0.023669555 	0.95080333
0.0020904523 	0.044505145 	0.014736091 	0.94652806
0.0021105528 	0.044505145 	0.014736091 	0.94652806
0.0021306533 	0.044505145 	0.014736091 	0.94652806
0.0021507538 	0.041422098 	0.0056921796 	0.94288278
0.0021708543 	0.041422098 	0.0056921796 	0.94288278
0.0021909548 	0.038797168 	-0.0026897503 	0.9398816
0.0022110553 	0.038797168 	-0.0026897503 	0.9398816
0.0022311558 	0.036716582 	-0.0099054628 	0.93749796
0.0022512563 	0.036716582 	-0.0099054628 	0.93749796
0.0022713568 	0.035202592 	-0.015820453 	0.93574506
0.0022914573 	0.035202592 	-0.015820453 	0.93574506
0.0023115578 	0.035202592 	-0.015820453 	0.93574506
0.0023316583 	0.034282355 	-0.020604371 	0.93465395
0.0023517588 	0.034282355 	-0.020604371 	0.93465395
0.0023718593 	0.033968294 	-0.024603277 	0.93414463
0.0023919598 	0.033968294 	-0.024603277 	0.93414463
0.0024120603 	0.03427465 	-0.028210955 	0.93399212
0.0024321608 	0.03427465 	-0.028210955 	0.93399212
0.0024522613 	0.035226654 	-0.031770739 	0.93386739
0.0024723618 	0.035226654 	-0.031770739 	0.93386739
0.0024924623 	0.036853108 	-0.035535921 	0.93341903
0.0025125628 	0.036853108 	-0.035535921 	0.93341903
0.0025326633 	0.039169275 	-0.039663503 	0.93235482
0.0025527638 	0.039169275 	-0.039663503 	0.93235482
0.0025728643 	0.042164276 	-0.044226354 	0.93050497
0.0025929648 	0.042164276 	-0.044226354 	0.93050497
0.0026130653 	0.045798355 	-0.049203695 	0.92784429
0.0026331658 	0.045798355 	-0.049203695 	0.92784429
0.0026532663 	0.050010965 	-0.054478112 	0.92447076
0.0026733668 	0.050010965 	-0.054478112 	0.92447076
0.0026934673 	0.054730312 	-0.059851446 	0.92056294
0.0027135678 	0.054730312 	-0.059851446 	0.92056294
0.0027336683 	0.059865417 	-0.065086382 	0.91629819
0.0027537688 	0.059865417 	-0.065086382 	0.91629819
0.0027738693 	0.065323017 	-0.069952206 	0.91185402
0.0027939698 	0.065323017 	-0.069952206 	0.91185402
0.0028140704 	0.070977761 	-0.074262846 	0.90736651
0.0028341709 	0.070977761 	-0.074262846 	0.90736651
0.0028542714 	0.076671163 	-0.077900683 	0.90294316
0.0028743719 	0.082204402 	-0.080818544 	0.89866584
0.0028944724 	0.082204402 	-0.080818544 	0.89866584
0.0029145729 	0.087333151 	-0.083033984 	0.89460749
0.0029346734 	0.087333151 	-0.083033984 	0.89460749
0.0029547739 	0.09178289 	-0.084618161 	0.89081332
0.0029748744 	0.09178289 	-0.084618161 	0.89081332
0.0029949749 	0.095280341 	-0.085678032 	0.88730635
0.0030150754 	0.097582999 	-0.086338 	0.88406295
0.0030351759 	0.097582999 	-0.086338 	0.88406295
0.0030552764 	0.098533202 	-0.086706087 	0.88097448
0.0030753769 	0.098533202 	-0.086706087 	0.88097448
0.0030954774 	0.098110254 	-0.086807831 	0.87778925
0.0031155779 	0.09644472 	-0.086500472 	0.8740879
0.0031356784 	0.09644472 	-0.086500472 	0.8740879
0.0031557789 	0.093782453 	-0.085434128 	0.86938535
0.0031758794 	0.093782453 	-0.085434128 	0.86938535
0.0031959799 	0.090388071 	-0.083129447 	0.86340772
0.0032160804 	0.086442063 	-0.079162175 	0.85641611
0.0032361809 	0.086442063 	-0.079162175 	0.85641611
0.0032562814 	0.081999711 	-0.073347082 	0.84931683
0.0032763819 	0.077041423 	-0.06581257 	0.84338615
0.0032964824 	0.077041423 	-0.06581257 	0.84338615
0.0033165829 	0.071563157 	-0.056963061 	0.83975502
0.0033366834 	0.065650936 	-0.047386244 	0.83898654
0.0033567839 	0.065650936 	-0.047386244 	0.83898654
0.0033768844 	0.059509179 	-0.037736621 	0.84096534
0.0033969849 	0.053449319 	-0.028591602 	0.8450598
0.0034170854 	0.053449319 	-0.028591602 	0.8450598
0.0034371859 	0.04790035 	-0.020291703 	0.8503748
0.0034572864 	0.04330492 	-0.012884775 	0.85594786
0.0034773869 	0.039921397 	-0.0060789505 	0.86078653
0.0034974874 	0.039921397 	-0.0060789505 	0.86078653
0.0035175879 	0.037939288 	0.00067299825 	0.86392531
0.0035376884 	0.037479418 	0.0080843457 	0.8644392
0.0035577889 	0.038440597 	0.016846357 	0.86149216
0.0035778894 	0.038440597 	0.016846357 	0.86149216
0.0035979899 	0.040525651 	0.027382065 	0.85443599
0.0036180905 	0.043278433 	0.039595823 	0.84296987
0.003638191 	0.046146923 	0.052754461 	0.8272957
0.0036582915 	0.046146923 	0.052754461 	0.8272957
0.003678392 	0.048561825 	0.065557685 	0.80820092
0.0036984925 	0.049994416 	0.076332997 	0.78717092
0.003718593 	0.049938701 	0.083194519 	0.76662477
0.0037386935 	0.047883856 	0.084136903 	0.7498763
0.003758794 	0.043452489 	0.077264745 	0.73956997
0.0037788945 	0.043452489 	0.077264745 	0.73956997
0.003798995 	0.036867206 	0.06148029 	0.73369241
0.0038190955 	0.029469581 	0.037721636 	0.72168168
0.003839196 	0.023024621 	0.010063084 	0.68671028
0.0038592965 	0.018594395 	-0.014681704 	0.61728813
0.003879397 	0.015771331 	-0.029872087 	0.5187181
0.0038994975 	0.013034728 	-0.033466613 	0.40984592
0.003919598 	0.0094886216 	-0.028908674 	0.30702309
0.0039396985 	0.0055517471 	-0.021411043 	0.2145014
0.003959799 	0.0022363238 	-0.014069938 	0.12829171
0.0039798995 	0.00028751625 	-0.0062811542 	0.043480015
0.004 	0.00028751625 	-0.0062811542 	0.043480015
