0 	0.013341919 	-0.047460418 	0.9917466
2.0100503e-05 	-0.05002176 	-0.016205063 	0.9862
4.0201005e-05 	-0.05002176 	-0.016205063 	0.9862
6.0301508e-05 	-0.055103793 	0.0039925311 	0.97794102
8.040201e-05 	-0.055103793 	0.0039925311 	0.97794102
0.00010050251 	-0.055103793 	0.0039925311 	0.97794102
0.00012060302 	-0.056034118 	0.002177348 	0.96540511
0.00014070352 	-0.056034118 	0.002177348 	0.96540511
0.00016080402 	-0.056034118 	0.002177348 	0.96540511
0.00018090452 	-0.055310242 	-0.0092274424 	0.94889961
0.00020100503 	-0.055310242 	-0.0092274424 	0.94889961
0.00022110553 	-0.055310242 	-0.0092274424 	0.94889961
0.00024120603 	-0.053208181 	-0.023848887 	0.9330718
0.00026130653 	-0.053208181 	-0.023848887 	0.9330718
0.00028140704 	-0.050859108 	-0.034024196 	0.9246316
0.00030150754 	-0.050859108 	-0.034024196 	0.9246316
0.00032160804 	-0.050859108 	-0.034024196 	0.9246316
0.00034170854 	-0.047848056 	-0.037096038 	0.92584065
0.00036180905 	-0.047848056 	-0.037096038 	0.92584065
0.00038190955 	-0.047848056 	-0.037096038 	0.92584065
0.00040201005 	-0.043384755 	-0.03615464 	0.93344
0.00042211055 	-0.043384755 	-0.03615464 	0.93344
0.00044221106 	-0.043384755 	-0.03615464 	0.93344
0.00046231156 	-0.037909849 	-0.034839775 	0.9421966
0.00048241206 	-0.037909849 	-0.034839775 	0.9421966
0.00050251256 	-0.032102544 	-0.034847483 	0.94815641
0.00052261307 	-0.032102544 	-0.034847483 	0.94815641
0.00054271357 	-0.032102544 	-0.034847483 	0.94815641
0.00056281407 	-0.026166091 	-0.036423136 	0.95008607
0.00058291457 	-0.026166091 	-0.036423136 	0.95008607
0.00060301508 	-0.026166091 	-0.036423136 	0.95008607
0.00062311558 	-0.020117049 	-0.039437532 	0.9484059
0.00064321608 	-0.020117049 	-0.039437532 	0.9484059
0.00066331658 	-0.020117049 	-0.039437532 	0.9484059
0.00068341709 	-0.01413308 	-0.043770771 	0.94398364
0.00070351759 	-0.01413308 	-0.043770771 	0.94398364
0.00072361809 	-0.0085661001 	-0.049130925 	0.93803962
0.00074371859 	-0.0085661001 	-0.049130925 	0.93803962
0.0007638191 	-0.0085661001 	-0.049130925 	0.93803962
0.0007839196 	-0.0038127224 	-0.055055202 	0.93208767
0.0008040201 	-0.0038127224 	-0.055055202 	0.93208767
0.0008241206 	-0.0038127224 	-0.055055202 	0.93208767
0.00084422111 	-0.00013809376 	-0.061095604 	0.92741714
0.00086432161 	-0.00013809376 	-0.061095604 	0.92741714
0.00088442211 	-0.00013809376 	-0.061095604 	0.92741714
0.00090452261 	0.0024584544 	-0.067062388 	0.92441656
0.00092462312 	0.0024584544 	-0.067062388 	0.92441656
0.00094472362 	0.0041804141 	-0.073097761 	0.92229428
0.00096482412 	-0.0027583737 	-0.069201692 	0.92900169
0.00098492462 	-0.0027583737 	-0.069201692 	0.92900169
0.0010050251 	-0.0018998832 	-0.075723984 	0.92480884
0.0010251256 	-0.0018998832 	-0.075723984 	0.92480884
0.0010452261 	0.0055472075 	-0.079681264 	0.91927574
0.0010653266 	0.0065947767 	-0.08641366 	0.91361122
0.0010854271 	0.0065947767 	-0.08641366 	0.91361122
0.0011055276 	0.0065947767 	-0.08641366 	0.91361122
0.0011256281 	0.0069700288 	-0.091801695 	0.90491158
0.0011457286 	-0.0013926252 	-0.087261491 	0.90472825
0.0011658291 	-0.0013926252 	-0.087261491 	0.90472825
0.0011859296 	-0.0030009663 	-0.089312682 	0.89104481
0.0012060302 	0.0060800933 	-0.094660917 	0.89447938
0.0012261307 	0.0060800933 	-0.094660917 	0.89447938
0.0012462312 	0.0034638945 	-0.094218338 	0.88473587
0.0012663317 	0.0034638945 	-0.094218338 	0.88473587
0.0012864322 	0.0034638945 	-0.094218338 	0.88473587
0.0013065327 	-0.00070802372 	-0.09037264 	0.87778277
0.0013266332 	-0.00070802372 	-0.09037264 	0.87778277
0.0013467337 	-0.00070802372 	-0.09037264 	0.87778277
0.0013668342 	-0.0057399567 	-0.083560145 	0.87440641
0.0013869347 	-0.0057399567 	-0.083560145 	0.87440641
0.0014070352 	-0.0057399567 	-0.083560145 	0.87440641
0.0014271357 	-0.010903865 	-0.074561102 	0.87391073
0.0014472362 	-0.010903865 	-0.074561102 	0.87391073
0.0014673367 	-0.010903865 	-0.074561102 	0.87391073
0.0014874372 	-0.015698881 	-0.064456862 	0.87478828
0.0015075377 	-0.015698881 	-0.064456862 	0.87478828
0.0015276382 	-0.01977263 	-0.054140858 	0.87546665
0.0015477387 	-0.01977263 	-0.054140858 	0.87546665
0.0015678392 	-0.01977263 	-0.054140858 	0.87546665
0.0015879397 	-0.022929701 	-0.044093552 	0.87490064
0.0016080402 	-0.022929701 	-0.044093552 	0.87490064
0.0016281407 	-0.022929701 	-0.044093552 	0.87490064
0.0016482412 	-0.025184573 	-0.034496513 	0.87285706
0.0016683417 	-0.025184573 	-0.034496513 	0.87285706
0.0016884422 	-0.026782049 	-0.025449158 	0.86982483
0.0017085427 	-0.026782049 	-0.025449158 	0.86982483
0.0017286432 	-0.026782049 	-0.025449158 	0.86982483
0.0017487437 	-0.028115717 	-0.017041324 	0.86660001
0.0017688442 	-0.028115717 	-0.017041324 	0.86660001
0.0017889447 	-0.028115717 	-0.017041324 	0.86660001
0.0018090452 	-0.029577726 	-0.0093170878 	0.86379909
0.0018291457 	-0.029577726 	-0.0093170878 	0.86379909
0.0018492462 	-0.031418135 	-0.0022239199 	0.86156936
0.0018693467 	-0.031418135 	-0.0022239199 	0.86156936
0.0018894472 	-0.031418135 	-0.0022239199 	0.86156936
0.0019095477 	-0.033659626 	0.0043085032 	0.85970796
0.0019296482 	-0.033659626 	0.0043085032 	0.85970796
0.0019497487 	-0.036199122 	0.010317068 	0.85799824
0.0019698492 	-0.036199122 	0.010317068 	0.85799824
0.0019899497 	-0.038909988 	0.015767579 	0.8564563
0.0020100503 	-0.038909988 	0.015767579 	0.8564563
0.0020301508 	-0.038909988 	0.015767579 	0.8564563
0.0020502513 	-0.041676814 	0.020566986 	0.8553475
0.0020703518 	-0.041676814 	0.020566986 	0.8553475
0.0020904523 	-0.04439594 	0.024627842 	0.85501811
0.0021105528 	-0.04439594 	0.024627842 	0.85501811
0.0021306533 	-0.04439594 	0.024627842 	0.85501811
0.0021507538 	-0.046968103 	0.027912755 	0.85570973
0.0021708543 	-0.046968103 	0.027912755 	0.85570973
0.0021909548 	-0.049295776 	0.030449286 	0.85748121
0.0022110553 	-0.049295776 	0.030449286 	0.85748121
0.0022311558 	-0.051293538 	0.032330175 	0.86023086
0.0022512563 	-0.051293538 	0.032330175 	0.86023086
0.0022713568 	-0.052907912 	0.033711631 	0.86376683
0.0022914573 	-0.052907912 	0.033711631 	0.86376683
0.0023115578 	-0.052907912 	0.033711631 	0.86376683
0.0023316583 	-0.054127113 	0.034784494 	0.86787991
0.0023517588 	-0.054127113 	0.034784494 	0.86787991
0.0023718593 	-0.054978261 	0.035732522 	0.87237617
0.0023919598 	-0.054978261 	0.035732522 	0.87237617
0.0024120603 	-0.055502733 	0.036691078 	0.87708812
0.0024321608 	-0.055502733 	0.036691078 	0.87708812
0.0024522613 	-0.055734202 	0.037722921 	0.88186664
0.0024723618 	-0.055734202 	0.037722921 	0.88186664
0.0024924623 	-0.055684805 	0.038825468 	0.88658005
0.0025125628 	-0.055684805 	0.038825468 	0.88658005
0.0025326633 	-0.055343659 	0.039952073 	0.89111906
0.0025527638 	-0.055343659 	0.039952073 	0.89111906
0.0025728643 	-0.05468607 	0.041038444 	0.89540575
0.0025929648 	-0.05468607 	0.041038444 	0.89540575
0.0026130653 	-0.053686403 	0.042023669 	0.89939851
0.0026331658 	-0.053686403 	0.042023669 	0.89939851
0.0026532663 	-0.052334347 	0.04286332 	0.90309453
0.0026733668 	-0.052334347 	0.04286332 	0.90309453
0.0026934673 	-0.050639468 	0.043534065 	0.90652388
0.0027135678 	-0.050639468 	0.043534065 	0.90652388
0.0027336683 	-0.048631499 	0.044036955 	0.90974252
0.0027537688 	-0.048631499 	0.044036955 	0.90974252
0.0027738693 	-0.04635546 	0.044390132 	0.91281935
0.0027939698 	-0.04635546 	0.044390132 	0.91281935
0.0028140704 	-0.043862859 	0.044628062 	0.91582636
0.0028341709 	-0.043862859 	0.044628062 	0.91582636
0.0028542714 	-0.041197977 	0.04479436 	0.91882695
0.0028743719 	-0.038393226 	0.044935113 	0.92186643
0.0028944724 	-0.038393226 	0.044935113 	0.92186643
0.0029145729 	-0.035477358 	0.045097691 	0.92496537
0.0029346734 	-0.035477358 	0.045097691 	0.92496537
0.0029547739 	-0.032457523 	0.045317411 	0.92811273
0.0029748744 	-0.032457523 	0.045317411 	0.92811273
0.0029949749 	-0.029335019 	0.045617573 	0.93125669
0.0030150754 	-0.026120943 	0.045999616 	0.93432477
0.0030351759 	-0.026120943 	0.045999616 	0.93432477
0.0030552764 	-0.022830509 	0.046438741 	0.93721792
0.0030753769 	-0.022830509 	0.046438741 	0.93721792
0.0030954774 	-0.019494158 	0.046885197 	0.93983216
0.0031155779 	-0.016179029 	0.047269074 	0.94207771
0.0031356784 	-0.016179029 	0.047269074 	0.94207771
0.0031557789 	-0.012983089 	0.047505659 	0.94390348
0.0031758794 	-0.012983089 	0.047505659 	0.94390348
0.0031959799 	-0.010019379 	0.047513077 	0.94529979
0.0032160804 	-0.007415222 	0.047228557 	0.9462794
0.0032361809 	-0.007415222 	0.047228557 	0.9462794
0.0032562814 	-0.0052849703 	0.046631808 	0.94682313
0.0032763819 	-0.0037029535 	0.04576266 	0.94679292
0.0032964824 	-0.0037029535 	0.04576266 	0.94679292
0.0033165829 	-0.00267822 	0.044728817 	0.94584446
0.0033366834 	-0.0021421866 	0.043694261 	0.94338786
0.0033567839 	-0.0021421866 	0.043694261 	0.94338786
0.0033768844 	-0.0019587215 	0.04283809 	0.93864106
0.0033969849 	-0.0019576915 	0.042279794 	0.93080058
0.0034170854 	-0.0019576915 	0.042279794 	0.93080058
0.0034371859 	-0.0019781818 	0.041990896 	0.91928645
0.0034572864 	-0.0019041014 	0.041729917 	0.90398832
0.0034773869 	-0.0016870893 	0.04105219 	0.88539318
0.0034974874 	-0.0016870893 	0.04105219 	0.88539318
0.0035175879 	-0.0013445705 	0.039420182 	0.86450735
0.0035376884 	-0.00093078279 	0.036384968 	0.8425694
0.0035577889 	-0.00050130205 	0.031768207 	0.82065706
0.0035778894 	-0.00050130205 	0.031768207 	0.82065706
0.0035979899 	-8.5644387e-05 	0.025763727 	0.79935102
0.0036180905 	0.00030843488 	0.018912971 	0.77858564
0.003638191 	0.00067827408 	0.011968378 	0.75771138
0.0036582915 	0.00067827408 	0.011968378 	0.75771138
0.003678392 	0.001002368 	0.005700191 	0.73567514
0.0036984925 	0.0012573405 	0.00071023268 	0.71121385
0.003718593 	0.0014098296 	-0.0026730129 	0.68298839
0.0037386935 	0.0014333181 	-0.0043909831 	0.64968765
0.003758794 	0.0013271157 	-0.0045645636 	0.61016613
0.0037788945 	0.0013271157 	-0.0045645636 	0.61016613
0.003798995 	0.0011036988 	-0.0033952687 	0.56367414
0.0038190955 	0.00081146367 	-0.0011484814 	0.51016376
0.003839196 	0.00051362911 	0.0017790422 	0.45056917
0.0038592965 	0.00027748096 	0.0048040321 	0.38680904
0.003879397 	0.00013609113 	0.0072463066 	0.32141862
0.0038994975 	7.2287579e-05 	0.0085386037 	0.25688116
0.003919598 	5.4698939e-05 	0.0084164743 	0.19495575
0.0039396985 	4.8989581e-05 	0.0069612729 	0.1362992
0.003959799 	3.3275335e-05 	0.0045096742 	0.080522123
0.0039798995 	4.3560084e-06 	0.001522471 	0.026634301
0.004 	4.3560084e-06 	0.001522471 	0.026634301
