0 	0.0019031447 	-0.0067381334 	1.0478589
2.0100503e-05 	0.0019031447 	-0.0067381334 	1.0478589
4.0201005e-05 	0.0019031447 	-0.0067381334 	1.0478589
6.0301508e-05 	0.0016386998 	-0.0072759431 	1.0474589
8.040201e-05 	0.0016386998 	-0.0072759431 	1.0474589
0.00010050251 	0.0016386998 	-0.0072759431 	1.0474589
0.00012060302 	0.0033504539 	-0.0084058523 	1.0469067
0.00014070352 	-0.0017678038 	-0.010801024 	1.0476337
0.00016080402 	-0.0017678038 	-0.010801024 	1.0476337
0.00018090452 	6.9061606e-05 	-0.012736071 	1.0472678
0.00020100503 	0.0051125355 	-0.0099914706 	1.046226
0.00022110553 	0.0051125355 	-0.0099914706 	1.046226
0.00024120603 	0.0065519639 	-0.011927137 	1.0454811
0.00026130653 	0.0012116121 	-0.014731127 	1.04681
0.00028140704 	0.0016578018 	-0.016758018 	1.0462533
0.00030150754 	0.0016578018 	-0.016758018 	1.0462533
0.00032160804 	0.0016578018 	-0.016758018 	1.0462533
0.00034170854 	0.0077658673 	-0.016278485 	1.0439603
0.00036180905 	0.0077658673 	-0.016278485 	1.0439603
0.00038190955 	0.0077658673 	-0.016278485 	1.0439603
0.00040201005 	0.0073850749 	-0.018374141 	1.0429269
0.00042211055 	0.0073850749 	-0.018374141 	1.0429269
0.00044221106 	0.0073850749 	-0.018374141 	1.0429269
0.00046231156 	0.0064961169 	-0.020472457 	1.0411287
0.00048241206 	0.0064961169 	-0.020472457 	1.0411287
0.00050251256 	0.005503069 	-0.02302381 	1.0378067
0.00052261307 	0.005503069 	-0.02302381 	1.0378067
0.00054271357 	0.005503069 	-0.02302381 	1.0378067
0.00056281407 	0.0049496459 	-0.026630807 	1.0322171
0.00058291457 	-0.0027199881 	-0.027817137 	1.029827
0.00060301508 	-0.0027199881 	-0.027817137 	1.029827
0.00062311558 	-0.00275563 	-0.032544182 	1.0203322
0.00064321608 	-0.00275563 	-0.032544182 	1.0203322
0.00066331658 	-0.00275563 	-0.032544182 	1.0203322
0.00068341709 	-0.002405451 	-0.037646275 	1.0097432
0.00070351759 	0.0060121944 	-0.036833707 	1.0148766
0.00072361809 	0.0068066474 	-0.041215873 	1.0063597
0.00074371859 	0.0068066474 	-0.041215873 	1.0063597
0.0007638191 	0.0068066474 	-0.041215873 	1.0063597
0.0007839196 	0.0069935026 	-0.043712231 	1.0011842
0.0008040201 	0.0069935026 	-0.043712231 	1.0011842
0.0008241206 	0.0069935026 	-0.043712231 	1.0011842
0.00084422111 	0.0064370531 	-0.044552951 	1.0010846
0.00086432161 	0.0064370531 	-0.044552951 	1.0010846
0.00088442211 	0.0064370531 	-0.044552951 	1.0010846
0.00090452261 	0.0057282928 	-0.044411437 	1.0064875
0.00092462312 	0.0057282928 	-0.044411437 	1.0064875
0.00094472362 	0.0057085098 	-0.043694089 	1.0172278
0.00096482412 	-0.0056652234 	-0.047391254 	1.012273
0.00098492462 	-0.0056652234 	-0.047391254 	1.012273
0.0010050251 	-0.0050946593 	-0.047159896 	1.0300503
0.0010251256 	0.0071560178 	-0.04230755 	1.0339741
0.0010452261 	0.0071560178 	-0.04230755 	1.0339741
0.0010653266 	0.010216709 	-0.040626848 	1.0555131
0.0010854271 	0.010216709 	-0.040626848 	1.0555131
0.0011055276 	0.010216709 	-0.040626848 	1.0555131
0.0011256281 	-0.0020797297 	-0.041627429 	1.0729343
0.0011457286 	0.013264696 	-0.037262563 	1.0767327
0.0011658291 	0.013264696 	-0.037262563 	1.0767327
0.0011859296 	0.014233362 	-0.030015671 	1.0931072
0.0012060302 	0.014233362 	-0.030015671 	1.0931072
0.0012261307 	0.014233362 	-0.030015671 	1.0931072
0.0012462312 	0.012725411 	-0.017709142 	1.1017021
0.0012663317 	0.012725411 	-0.017709142 	1.1017021
0.0012864322 	0.012725411 	-0.017709142 	1.1017021
0.0013065327 	0.010459561 	-0.0040651 	1.1012404
0.0013266332 	0.010459561 	-0.0040651 	1.1012404
0.0013467337 	0.010459561 	-0.0040651 	1.1012404
0.0013668342 	0.0099111362 	0.0039047931 	1.0904754
0.0013869347 	0.0099111362 	0.0039047931 	1.0904754
0.0014070352 	0.0099111362 	0.0039047931 	1.0904754
0.0014271357 	0.011216787 	0.0023365239 	1.0673629
0.0014472362 	0.011216787 	0.0023365239 	1.0673629
0.0014673367 	0.011216787 	0.0023365239 	1.0673629
0.0014874372 	0.011585603 	-0.0040968533 	1.0322479
0.0015075377 	0.011585603 	-0.0040968533 	1.0322479
0.0015276382 	0.008742248 	-0.0085341162 	0.99056324
0.0015477387 	0.008742248 	-0.0085341162 	0.99056324
0.0015678392 	0.008742248 	-0.0085341162 	0.99056324
0.0015879397 	0.0027990004 	-0.0088694741 	0.95078594
0.0016080402 	0.0027990004 	-0.0088694741 	0.95078594
0.0016281407 	0.0027990004 	-0.0088694741 	0.95078594
0.0016482412 	-0.0042394229 	-0.0067492514 	0.92046016
0.0016683417 	-0.0042394229 	-0.0067492514 	0.92046016
0.0016884422 	-0.010082042 	-0.0041928875 	0.90203911
0.0017085427 	-0.010082042 	-0.0041928875 	0.90203911
0.0017286432 	-0.010082042 	-0.0041928875 	0.90203911
0.0017487437 	-0.013767244 	-0.0020703988 	0.89224804
0.0017688442 	-0.013767244 	-0.0020703988 	0.89224804
0.0017889447 	-0.013767244 	-0.0020703988 	0.89224804
0.0018090452 	-0.015682885 	-0.00038101601 	0.88590713
0.0018291457 	-0.015682885 	-0.00038101601 	0.88590713
0.0018492462 	-0.016610609 	0.0012097074 	0.87957452
0.0018693467 	-0.016610609 	0.0012097074 	0.87957452
0.0018894472 	-0.016610609 	0.0012097074 	0.87957452
0.0019095477 	-0.017287452 	0.0030840012 	0.8722322
0.0019296482 	-0.017287452 	0.0030840012 	0.8722322
0.0019497487 	-0.01821765 	0.0053941538 	0.86429145
0.0019698492 	-0.01821765 	0.0053941538 	0.86429145
0.0019899497 	-0.019607722 	0.0079703691 	0.8564074
0.0020100503 	-0.019607722 	0.0079703691 	0.8564074
0.0020301508 	-0.019607722 	0.0079703691 	0.8564074
0.0020502513 	-0.021472213 	0.010564708 	0.84889421
0.0020703518 	-0.021472213 	0.010564708 	0.84889421
0.0020904523 	-0.023712319 	0.013000108 	0.84173762
0.0021105528 	-0.023712319 	0.013000108 	0.84173762
0.0021306533 	-0.023712319 	0.013000108 	0.84173762
0.0021507538 	-0.026200763 	0.015215758 	0.83482921
0.0021708543 	-0.026200763 	0.015215758 	0.83482921
0.0021909548 	-0.028820145 	0.017241083 	0.82810551
0.0022110553 	-0.028820145 	0.017241083 	0.82810551
0.0022311558 	-0.031446628 	0.019068036 	0.82147795
0.0022512563 	-0.031446628 	0.019068036 	0.82147795
0.0022713568 	-0.034013156 	0.020625962 	0.81474778
0.0022914573 	-0.034013156 	0.020625962 	0.81474778
0.0023115578 	-0.034013156 	0.020625962 	0.81474778
0.0023316583 	-0.036473824 	0.021769594 	0.80762904
0.0023517588 	-0.036473824 	0.021769594 	0.80762904
0.0023718593 	-0.038830314 	0.02236325 	0.79986221
0.0023919598 	-0.038830314 	0.02236325 	0.79986221
0.0024120603 	-0.041075913 	0.022334855 	0.79140348
0.0024321608 	-0.041075913 	0.022334855 	0.79140348
0.0024522613 	-0.043095714 	0.021689815 	0.78254398
0.0024723618 	-0.043095714 	0.021689815 	0.78254398
0.0024924623 	-0.0447446 	0.020460873 	0.77385436
0.0025125628 	-0.0447446 	0.020460873 	0.77385436
0.0025326633 	-0.0458813 	0.018687689 	0.76603275
0.0025527638 	-0.0458813 	0.018687689 	0.76603275
0.0025728643 	-0.04642348 	0.016418587 	0.75970977
0.0025929648 	-0.04642348 	0.016418587 	0.75970977
0.0026130653 	-0.046406334 	0.013777228 	0.7552496
0.0026331658 	-0.046406334 	0.013777228 	0.7552496
0.0026532663 	-0.045980303 	0.011027734 	0.75261644
0.0026733668 	-0.045980303 	0.011027734 	0.75261644
0.0026934673 	-0.045317976 	0.0085165569 	0.75137283
0.0027135678 	-0.045317976 	0.0085165569 	0.75137283
0.0027336683 	-0.044529692 	0.0065707405 	0.75082956
0.0027537688 	-0.044529692 	0.0065707405 	0.75082956
0.0027738693 	-0.043654824 	0.005383665 	0.75028478
0.0027939698 	-0.043654824 	0.005383665 	0.75028478
0.0028140704 	-0.04267162 	0.0049720894 	0.74920302
0.0028341709 	-0.04267162 	0.0049720894 	0.74920302
0.0028542714 	-0.041532191 	0.0052047021 	0.74729625
0.0028743719 	-0.040168287 	0.0058636101 	0.74454103
0.0028944724 	-0.040168287 	0.0058636101 	0.74454103
0.0029145729 	-0.038521893 	0.0066687394 	0.74114903
0.0029346734 	-0.038521893 	0.0066687394 	0.74114903
0.0029547739 	-0.036582069 	0.0073143067 	0.73748856
0.0029748744 	-0.036582069 	0.0073143067 	0.73748856
0.0029949749 	-0.034361062 	0.0075126692 	0.73397684
0.0030150754 	-0.031874805 	0.0070478727 	0.7309636
0.0030351759 	-0.031874805 	0.0070478727 	0.7309636
0.0030552764 	-0.029121538 	0.0058155995 	0.72865467
0.0030753769 	-0.029121538 	0.0058155995 	0.72865467
0.0030954774 	-0.026078976 	0.0038290632 	0.7270938
0.0031155779 	-0.022715514 	0.0011971044 	0.72619154
0.0031356784 	-0.022715514 	0.0011971044 	0.72619154
0.0031557789 	-0.018997242 	-0.0019111583 	0.7257754
0.0031758794 	-0.018997242 	-0.0019111583 	0.7257754
0.0031959799 	-0.014895744 	-0.0052985832 	0.72563135
0.0032160804 	-0.010395344 	-0.0087641539 	0.72553672
0.0032361809 	-0.010395344 	-0.0087641539 	0.72553672
0.0032562814 	-0.0054991998 	-0.012117472 	0.72527254
0.0032763819 	-0.00023708968 	-0.015189853 	0.72464051
0.0032964824 	-0.00023708968 	-0.015189853 	0.72464051
0.0033165829 	0.0052941431 	-0.017851839 	0.72348714
0.0033366834 	0.010971965 	-0.020021909 	0.72171244
0.0033567839 	0.010971965 	-0.020021909 	0.72171244
0.0033768844 	0.016671401 	-0.021663641 	0.7192762
0.0033969849 	0.022243609 	-0.022794537 	0.71620071
0.0034170854 	0.022243609 	-0.022794537 	0.71620071
0.0034371859 	0.027545473 	-0.023495286 	0.71256062
0.0034572864 	0.032455086 	-0.023897357 	0.70845439
0.0034773869 	0.036889818 	-0.024152141 	0.70398751
0.0034974874 	0.036889818 	-0.024152141 	0.70398751
0.0035175879 	0.040800939 	-0.024397193 	0.69927616
0.0035376884 	0.04414565 	-0.02471238 	0.694467
0.0035577889 	0.046858946 	-0.02509887 	0.68972701
0.0035778894 	0.046858946 	-0.02509887 	0.68972701
0.0035979899 	0.048847879 	-0.025490402 	0.68517899
0.0036180905 	0.050009912 	-0.025786295 	0.68079644
0.003638191 	0.050254296 	-0.025877293 	0.67635181
0.0036582915 	0.050254296 	-0.025877293 	0.67635181
0.003678392 	0.04951172 	-0.025642106 	0.67151662
0.0036984925 	0.047722795 	-0.024937023 	0.66605909
0.003718593 	0.044825808 	-0.023635651 	0.65990125
0.0037386935 	0.040775185 	-0.021720301 	0.65278015
0.003758794 	0.035616283 	-0.019298497 	0.64348642
0.0037788945 	0.035616283 	-0.019298497 	0.64348642
0.003798995 	0.029617602 	-0.016398602 	0.6290556
0.0038190955 	0.023213637 	-0.012651481 	0.60460367
0.003839196 	0.017001227 	-0.0072384319 	0.56486935
0.0038592965 	0.011627878 	0.00042495549 	0.50720008
0.003879397 	0.0074409761 	0.0097124813 	0.4335229
0.0038994975 	0.0044383122 	0.018425556 	0.34985136
0.003919598 	0.0024043622 	0.023701313 	0.26364973
0.0039396985 	0.0010906535 	0.023507877 	0.18088361
0.003959799 	0.0003277156 	0.017488641 	0.10441433
0.0039798995 	2.5148498e-05 	0.0067675623 	0.033913373
0.004 	2.5148498e-05 	0.0067675623 	0.033913373
