0 	-0.0494351 	0.057992046 	0.95833526
5.5555556e-05 	-0.024117515 	-0.065236471 	0.94222076
0.00011111111 	-0.013628011 	-0.063400949 	0.93419084
0.00016666667 	-0.009000712 	-0.05933023 	0.92737411
0.00022222222 	-0.0074990395 	-0.055065778 	0.92252085
0.00027777778 	-0.0083269068 	-0.051069823 	0.9199216
0.00033333333 	-0.010959399 	-0.046974553 	0.91926415
0.00038888889 	-0.014747654 	-0.041855603 	0.91975356
0.00044444444 	-0.018890664 	-0.034840338 	0.92042795
0.0005 	-0.02262651 	-0.025927327 	0.92062339
0.00055555556 	-0.025517122 	-0.01624054 	0.92052071
0.00061111111 	-0.027550096 	-0.0073557921 	0.92120474
0.00066666667 	-0.028959545 	-0.00025339918 	0.92378546
0.00072222222 	-0.029976674 	0.005029192 	0.92847962
0.00077777778 	-0.030694411 	0.0090603887 	0.93467466
0.00083333333 	-0.03105982 	0.012444897 	0.94143988
0.00088888889 	-0.030974484 	0.015546798 	0.94784532
0.00094444444 	-0.030387171 	0.018481579 	0.95313155
0.001 	-0.029318886 	0.021528815 	0.95705566
0.0010617224 	-0.02794605 	0.024717858 	0.95913445
0.0011225923 	-0.026666787 	0.02828653 	0.95972308
0.0011826215 	-0.025608258 	0.032353357 	0.95926143
0.0012418217 	-0.024704107 	0.03716733 	0.95813391
0.0013002041 	-0.023747731 	0.042792727 	0.95658266
0.0013577803 	-0.022541766 	0.049164741 	0.95463229
0.0014145612 	-0.020946664 	0.056089022 	0.95204155
0.0014705579 	-0.018890849 	0.063285968 	0.94836828
0.0015257812 	-0.01634604 	0.070426119 	0.94313634
0.0015802418 	-0.013318385 	0.077212879 	0.93597255
0.0016339502 	-0.0098449639 	0.083446771 	0.92668736
0.0016869168 	-0.0059925352 	0.088977052 	0.91533013
0.0017391518 	-0.0018824574 	0.093667366 	0.90222176
0.0017906654 	0.0023167179 	0.09734442 	0.88794582
0.0018414676 	0.0064244553 	0.099790937 	0.87327807
0.0018915681 	0.010203141 	0.10078389 	0.85907066
0.0019409766 	0.013350634 	0.10019677 	0.84614103
0.0019897027 	0.015567608 	0.098065754 	0.83517093
0.0020377558 	0.016667194 	0.094509308 	0.82661519
0.0020851453 	0.016767109 	0.089446012 	0.82061906
0.0021318802 	0.016347293 	0.082367545 	0.81705575
0.0021779697 	0.016067 	0.072475766 	0.8158029
0.0022234225 	0.016465172 	0.059162414 	0.81696405
0.0022682477 	0.017683301 	0.042439423 	0.82071285
0.0023124537 	0.019379076 	0.02319721 	0.82689437
0.0023560491 	0.020923272 	0.0031087501 	0.83484701
0.0023990425 	0.021739629 	-0.015852084 	0.84351241
0.002441442 	0.021589073 	-0.032085636 	0.85163942
0.002483256 	0.020634653 	-0.044808713 	0.85793393
0.0025244924 	0.019214148 	-0.054003032 	0.86135721
0.0025651593 	0.017554801 	-0.060068416 	0.86151336
0.0026052645 	0.015611861 	-0.063450148 	0.85885062
0.0026448158 	0.013103362 	-0.064541259 	0.85446624
0.0026838209 	0.0096595531 	-0.063711628 	0.84957354
0.0027222872 	0.0049696368 	-0.061369273 	0.84493911
0.0027602223 	-0.0011002809 	-0.057953195 	0.84061071
0.0027976334 	-0.0084527097 	-0.053882225 	0.83613161
0.0028345278 	-0.016746659 	-0.049505183 	0.83114192
0.0028709126 	-0.025438689 	-0.045052902 	0.82591507
0.002906795 	-0.033875778 	-0.040748704 	0.82133055
0.0029421817 	-0.041381347 	-0.037064046 	0.81824542
0.0029770797 	-0.047474196 	-0.034481503 	0.8168041
0.0030114957 	-0.051984091 	-0.032797571 	0.81649905
0.0030454363 	-0.054923716 	-0.031094734 	0.81673139
0.0030789082 	-0.056409699 	-0.028743969 	0.81739094
0.0031119178 	-0.056657103 	-0.025816494 	0.81847744
0.0031444715 	-0.05586407 	-0.022690862 	0.81994408
0.0031765755 	-0.054218145 	-0.019664368 	0.82162906
0.0032082362 	-0.051900937 	-0.016875109 	0.82326372
0.0032394596 	-0.049057407 	-0.014346184 	0.82468419
0.0032702517 	-0.045866376 	-0.012040758 	0.82582368
0.0033006186 	-0.042482886 	-0.0099386382 	0.82665005
0.003330566 	-0.039040998 	-0.0080111594 	0.82713608
0.0033600998 	-0.03565853 	-0.0062460112 	0.82723278
0.0033892257 	-0.032436014 	-0.0046437236 	0.8268385
0.0034179494 	-0.029438415 	-0.0032107182 	0.82578581
0.0034462763 	-0.026695571 	-0.0019558311 	0.8238248
0.003474212 	-0.024206144 	-0.00088349351 	0.82059875
0.0035017619 	-0.02194573 	1.1143506e-05 	0.8156186
0.0035289312 	-0.019874736 	0.00074545357 	0.80825133
0.0035557253 	-0.017938145 	0.0013575279 	0.79773441
0.0035821494 	-0.016104562 	0.0019178729 	0.78321523
0.0036082084 	-0.014354778 	0.0025540391 	0.76389636
0.0036339076 	-0.012671139 	0.0034453944 	0.73916747
0.0036592518 	-0.011065464 	0.0047714249 	0.70872208
0.003684246 	-0.0095600488 	0.0065876323 	0.67266815
0.003708895 	-0.0081736853 	0.0086777247 	0.63162816
0.0037332035 	-0.0069139464 	0.010519848 	0.5867823
0.0037571763 	-0.0057760702 	0.011461502 	0.53972508
0.003780818 	-0.0047485939 	0.011035017 	0.49205403
0.0038041332 	-0.0038279206 	0.0092014574 	0.44484072
0.0038271264 	-0.0030220058 	0.0063664256 	0.39828629
0.0038498019 	-0.0023389112 	0.0031896425 	0.35176685
0.0038721643 	-0.0017747777 	0.00033435865 	0.30421559
0.0038942179 	-0.0013080304 	-0.0017347194 	0.25459913
0.0039159668 	-0.00090736044 	-0.002831181 	0.20228598
0.0039374154 	-0.00054935056 	-0.0029980528 	0.14718286
0.0039585677 	-0.00024304311 	-0.0023729533 	0.089643412
0.0039794279 	-3.0812509e-05 	-0.0010414416 	0.030293743
0.004 	-2.1270448e-05 	0.00059849236 	0.027410812
