0 	0.0022885801 	0.036176511 	1.082973
5.5555556e-05 	0.031899844 	-0.017530498 	1.0835645
0.00011111111 	0.030241653 	-0.020570978 	1.0830775
0.00016666667 	0.030205994 	-0.020985489 	1.0818665
0.00022222222 	0.031051092 	-0.020106626 	1.0798642
0.00027777778 	0.032441868 	-0.018228582 	1.0771081
0.00033333333 	0.034143434 	-0.015423999 	1.0737592
0.00038888889 	0.035942199 	-0.011698953 	1.070088
0.00044444444 	0.037619665 	-0.0069808313 	1.0664212
0.0005 	0.039005902 	-0.0011656885 	1.0630124
0.00055555556 	0.039907309 	0.0058830586 	1.0599134
0.00061111111 	0.040132203 	0.01425536 	1.0568537
0.00066666667 	0.039570471 	0.023835498 	1.0532673
0.00072222222 	0.038096099 	0.034251119 	1.0484885
0.00077777778 	0.035685473 	0.044801168 	1.0420489
0.00083333333 	0.03249551 	0.054386622 	1.0339527
0.00088888889 	0.029103179 	0.061748074 	1.0245986
0.00094444444 	0.02619419 	0.065903226 	1.0143135
0.001 	0.024266963 	0.066781798 	1.0022256
0.0010617224 	0.023631918 	0.065099341 	0.98847227
0.0011225923 	0.024366557 	0.062356545 	0.97386642
0.0011826215 	0.026213296 	0.059679176 	0.95872778
0.0012418217 	0.02888775 	0.05740578 	0.94362149
0.0013002041 	0.031824641 	0.055095672 	0.92937615
0.0013577803 	0.034358039 	0.052008023 	0.91697549
0.0014145612 	0.03586485 	0.047688842 	0.90742893
0.0014705579 	0.035954784 	0.042183966 	0.90158727
0.0015257812 	0.034615763 	0.035792781 	0.89995121
0.0015802418 	0.032161706 	0.028811194 	0.90240541
0.0016339502 	0.029134239 	0.021588181 	0.90800078
0.0016869168 	0.026002073 	0.014580761 	0.91481229
0.0017391518 	0.022879209 	0.0082924627 	0.92014565
0.0017906654 	0.019519584 	0.0030001726 	0.92137294
0.0018414676 	0.015452095 	-0.0014305108 	0.91712739
0.0018915681 	0.010354375 	-0.0054432466 	0.90808034
0.0019409766 	0.0042893646 	-0.0093616066 	0.89651581
0.0019897027 	-0.0024814771 	-0.013192495 	0.88508388
0.0020377558 	-0.0096762823 	-0.01690566 	0.87566375
0.0020851453 	-0.01699364 	-0.020728079 	0.86886165
0.0021318802 	-0.024014621 	-0.024990764 	0.86416837
0.0021779697 	-0.03015462 	-0.029649652 	0.86058715
0.0022234225 	-0.034792635 	-0.034131346 	0.8572508
0.0022682477 	-0.037447883 	-0.037684903 	0.85365259
0.0023124537 	-0.037863512 	-0.039820194 	0.84957639
0.0023560491 	-0.03600327 	-0.040355825 	0.8449949
0.0023990425 	-0.032052079 	-0.0393169 	0.83999915
0.002441442 	-0.026392248 	-0.036853306 	0.83478368
0.002483256 	-0.01954075 	-0.033221422 	0.82962458
0.0025244924 	-0.012091212 	-0.028767175 	0.82481868
0.0025651593 	-0.0046155158 	-0.02388404 	0.82066409
0.0026052645 	0.0024375037 	-0.018873439 	0.81739054
0.0026448158 	0.0087851723 	-0.01397866 	0.81513565
0.0026838209 	0.014265886 	-0.0093290379 	0.81390426
0.0027222872 	0.018933428 	-0.0049931197 	0.8134713
0.0027602223 	0.022984842 	-0.0010118306 	0.81329192
0.0027976334 	0.026656998 	0.0025119945 	0.81238364
0.0028345278 	0.030221848 	0.0053139896 	0.80937122
0.0028709126 	0.033801426 	0.006904743 	0.80280436
0.002906795 	0.037250373 	0.0065679355 	0.79182612
0.0029421817 	0.040215161 	0.0034269651 	0.77734537
0.0029770797 	0.041882295 	-0.00330641 	0.76315561
0.0030114957 	0.041231076 	-0.013737602 	0.75577113
0.0030454363 	0.037750956 	-0.026493443 	0.76135465
0.0030789082 	0.031646979 	-0.039309535 	0.7811466
0.0031119178 	0.023668609 	-0.051009264 	0.80981372
0.0031444715 	0.01469679 	-0.061922336 	0.83889577
0.0031765755 	0.0054347846 	-0.072189462 	0.86191947
0.0032082362 	-0.003572322 	-0.080760224 	0.8761827
0.0032394596 	-0.011697179 	-0.08625725 	0.88114398
0.0032702517 	-0.018302639 	-0.088180786 	0.87685531
0.0033006186 	-0.023011315 	-0.087162412 	0.86429957
0.003330566 	-0.025813091 	-0.084365149 	0.84610967
0.0033600998 	-0.02693334 	-0.080859721 	0.82584082
0.0033892257 	-0.02658053 	-0.077315469 	0.80630222
0.0034179494 	-0.024842639 	-0.073754512 	0.78864687
0.0034462763 	-0.021770466 	-0.069229784 	0.77278546
0.003474212 	-0.017516705 	-0.061674545 	0.75819457
0.0035017619 	-0.012460623 	-0.048164604 	0.744013
0.0035289312 	-0.0070212118 	-0.026016198 	0.72823205
0.0035557253 	-0.0017708103 	0.0053779585 	0.70789821
0.0035821494 	0.0024183144 	0.043055107 	0.68087799
0.0036082084 	0.0046393746 	0.080062368 	0.64675878
0.0036339076 	0.0045088181 	0.1077158 	0.6053901
0.0036592518 	0.0023012314 	0.12079826 	0.55696692
0.003684246 	-0.0013151893 	0.12135262 	0.50439812
0.003708895 	-0.0060118737 	0.11534906 	0.45319139
0.0037332035 	-0.011439263 	0.10608454 	0.40773772
0.0037571763 	-0.016540761 	0.093350366 	0.36855035
0.003780818 	-0.020290178 	0.077194142 	0.33328966
0.0038041332 	-0.022061374 	0.059480666 	0.29926319
0.0038271264 	-0.021718828 	0.042693169 	0.26464875
0.0038498019 	-0.019558586 	0.028731645 	0.22859175
0.0038721643 	-0.016196146 	0.018546317 	0.19123258
0.0038942179 	-0.012340264 	0.012141158 	0.15364597
0.0039159668 	-0.008539222 	0.0088458675 	0.11727278
0.0039374154 	-0.0050926896 	0.0075558346 	0.083120834
0.0039585677 	-0.0022283152 	0.0067754551 	0.051044288
0.0039794279 	-0.00029851182 	0.0042394573 	0.018852309
0.004 	-0.00029851182 	0.0042394573 	0.018852309
