0 	-0.049881875 	0.01887945 	1.0688249
5.5555556e-05 	-0.053331559 	-0.0068586042 	1.065206
0.00011111111 	-0.051726571 	-0.013005707 	1.0610882
0.00016666667 	-0.050360256 	-0.012978819 	1.0570041
0.00022222222 	-0.049364098 	-0.0088409992 	1.0531742
0.00027777778 	-0.048749286 	-0.0014859443 	1.0495585
0.00033333333 	-0.048505808 	0.0076937237 	1.0460292
0.00038888889 	-0.048525469 	0.016554891 	1.0423903
0.00044444444 	-0.048490818 	0.022715085 	1.0382923
0.0005 	-0.04790281 	0.024316974 	1.0334331
0.00055555556 	-0.046306317 	0.020432211 	1.0279613
0.00061111111 	-0.043457462 	0.011204712 	1.0225878
0.00066666667 	-0.03933856 	-0.0021188825 	1.0182054
0.00072222222 	-0.034142735 	-0.017263267 	1.0152315
0.00077777778 	-0.028244254 	-0.031298304 	1.0131028
0.00083333333 	-0.022144637 	-0.041482003 	1.0103584
0.00088888889 	-0.016372508 	-0.046290748 	1.0053918
0.00094444444 	-0.011283996 	-0.045970727 	0.99737079
0.001 	-0.0067901498 	-0.041845542 	0.9858877
0.0010617199 	-0.00292402 	-0.035458127 	0.97161255
0.0011225874 	0.00035974043 	-0.029286818 	0.95713608
0.0011826143 	0.0031795952 	-0.024471283 	0.94395218
0.0012418122 	0.0056691364 	-0.021434008 	0.93286505
0.0013001926 	0.0080942039 	-0.019988377 	0.92398915
0.0013577668 	0.01073019 	-0.019712795 	0.91714142
0.0014145458 	0.013697427 	-0.020180244 	0.91208882
0.0014705407 	0.016971877 	-0.02086468 	0.9084696
0.0015257623 	0.020467783 	-0.0211096 	0.90573976
0.0015802213 	0.024059197 	-0.020276728 	0.90340718
0.0016339282 	0.027558274 	-0.017907474 	0.90119255
0.0016868934 	0.030721711 	-0.013749687 	0.8990326
0.0017391271 	0.033280589 	-0.0077136622 	0.8969899
0.0017906395 	0.034934866 	0.0001460628 	0.89515297
0.0018414404 	0.03536199 	0.0097194468 	0.8936048
0.0018915398 	0.034234513 	0.020855805 	0.8922811
0.0019409473 	0.031342335 	0.033319089 	0.89116487
0.0019896725 	0.026574751 	0.046447141 	0.8903292
0.0020377248 	0.01996588 	0.059174492 	0.8901734
0.0020851134 	0.011565874 	0.070180354 	0.89138499
0.0021318476 	0.001609852 	0.078415312 	0.89425955
0.0021779364 	-0.0090562657 	0.083212371 	0.89774607
0.0022233887 	-0.018912864 	0.083737492 	0.89892347
0.0022682133 	-0.026187804 	0.078762082 	0.89397363
0.0023124189 	-0.029908136 	0.06760482 	0.88074225
0.0023560139 	-0.030639953 	0.051740506 	0.86096425
0.0023990069 	-0.030119169 	0.034891208 	0.83998488
0.0024414062 	-0.029965424 	0.020582107 	0.82376177
0.0024832199 	-0.03082916 	0.0097630125 	0.81558549
0.0025244562 	-0.032617348 	0.0014540317 	0.81493292
0.002565123 	-0.035022571 	-0.0053762176 	0.81896981
0.0026052281 	-0.037869386 	-0.011145798 	0.82467387
0.0026447794 	-0.041131593 	-0.016180467 	0.82994117
0.0026837845 	-0.044748882 	-0.020965467 	0.8335421
0.0027222509 	-0.048588435 	-0.025992036 	0.83478336
0.0027601861 	-0.052526673 	-0.031475556 	0.83340071
0.0027975974 	-0.056386232 	-0.037267708 	0.82951625
0.002834492 	-0.0599994 	-0.042931974 	0.82353914
0.0028708772 	-0.06321924 	-0.047909439 	0.81604915
0.0029067598 	-0.065901927 	-0.051675916 	0.80768816
0.0029421469 	-0.06792396 	-0.053856069 	0.79904282
0.0029770452 	-0.069213827 	-0.054267846 	0.79059342
0.0030114616 	-0.069763014 	-0.052915726 	0.78270059
0.0030454028 	-0.069624187 	-0.049958603 	0.77561153
0.0030788752 	-0.068904687 	-0.045668298 	0.76948409
0.0031118853 	-0.067731459 	-0.040374699 	0.76441601
0.0031444395 	-0.066214904 	-0.034408118 	0.76046397
0.0031765442 	-0.064426936 	-0.028061121 	0.75765447
0.0032082055 	-0.062397945 	-0.021553948 	0.75598472
0.0032394295 	-0.060141396 	-0.015054291 	0.75540732
0.0032702223 	-0.057671855 	-0.0086838615 	0.75579953
0.0033005899 	-0.054969008 	-0.0025478176 	0.75694278
0.0033305381 	-0.052030046 	0.0032289563 	0.75851492
0.0033600727 	-0.04888908 	0.0085030582 	0.76010403
0.0033891994 	-0.045593967 	0.0131269 	0.76124593
0.0034179239 	-0.042204323 	0.016972824 	0.76148244
0.0034462517 	-0.038721814 	0.019967461 	0.76042784
0.0034741882 	-0.035167759 	0.022087867 	0.75776575
0.003501739 	-0.03162843 	0.023368623 	0.75323521
0.0035289093 	-0.028180654 	0.023919696 	0.74663197
0.0035557043 	-0.024911776 	0.02393653 	0.73777399
0.0035821293 	-0.021917726 	0.023704716 	0.72645439
0.0036081894 	-0.019295492 	0.023584979 	0.71238283
0.0036338895 	-0.017133368 	0.023966417 	0.6951141
0.0036592348 	-0.01550585 	0.02518306 	0.67399161
0.00368423 	-0.014471209 	0.027397106 	0.64819357
0.00370888 	-0.014060415 	0.030472622 	0.61699168
0.0037331896 	-0.014241769 	0.033891482 	0.58018045
0.0037571635 	-0.014855124 	0.036823961 	0.53835675
0.0037808063 	-0.015548651 	0.038390165 	0.49271856
0.0038041226 	-0.015816675 	0.037973881 	0.44451313
0.0038271169 	-0.015202453 	0.035410011 	0.3946667
0.0038497936 	-0.013546785 	0.030994078 	0.34385682
0.0038721572 	-0.011066037 	0.02541683 	0.29264517
0.0038942119 	-0.0081976537 	0.019560665 	0.2413058
0.003915962 	-0.0053741056 	0.014158145 	0.18964309
0.0039374118 	-0.002919378 	0.009467486 	0.13717004
0.0039585653 	-0.0010796581 	0.0052926535 	0.08347815
0.0039794267 	-9.0080111e-05 	0.0014593583 	0.028415663
0.004 	-8.231556e-06 	0.0064658633 	0.032014765
