0 	-0.00084656238 	0.035443491 	1.2856215
2.0100503e-05 	0.013359784 	0.007266255 	1.2885358
4.0201005e-05 	0.013359784 	0.007266255 	1.2885358
6.0301508e-05 	-0.003595154 	0.018247728 	1.2978603
8.040201e-05 	-0.003595154 	0.018247728 	1.2978603
0.00010050251 	-0.003595154 	0.018247728 	1.2978603
0.00012060302 	-0.01667041 	0.034939264 	1.3095797
0.00014070352 	-0.01667041 	0.034939264 	1.3095797
0.00016080402 	-0.01667041 	0.034939264 	1.3095797
0.00018090452 	-0.025936203 	0.044705531 	1.3173336
0.00020100503 	-0.025936203 	0.044705531 	1.3173336
0.00022110553 	-0.025936203 	0.044705531 	1.3173336
0.00024120603 	-0.030694558 	0.045073678 	1.3155091
0.00026130653 	-0.030694558 	0.045073678 	1.3155091
0.00028140704 	-0.031203401 	0.038055421 	1.3042731
0.00030150754 	-0.031203401 	0.038055421 	1.3042731
0.00032160804 	-0.031203401 	0.038055421 	1.3042731
0.00034170854 	-0.029860988 	0.027735254 	1.2902264
0.00036180905 	-0.029860988 	0.027735254 	1.2902264
0.00038190955 	-0.029860988 	0.027735254 	1.2902264
0.00040201005 	-0.029015939 	0.018076026 	1.2792322
0.00042211055 	-0.029015939 	0.018076026 	1.2792322
0.00044221106 	-0.029015939 	0.018076026 	1.2792322
0.00046231156 	-0.029025082 	0.010875593 	1.2724431
0.00048241206 	-0.029025082 	0.010875593 	1.2724431
0.00050251256 	-0.029113926 	0.0060663498 	1.2686249
0.00052261307 	-0.029113926 	0.0060663498 	1.2686249
0.00054271357 	-0.029113926 	0.0060663498 	1.2686249
0.00056281407 	-0.028419753 	0.0028650192 	1.2664352
0.00058291457 	-0.028419753 	0.0028650192 	1.2664352
0.00060301508 	-0.028419753 	0.0028650192 	1.2664352
0.00062311558 	-0.026479726 	0.00056286166 	1.2651587
0.00064321608 	-0.026479726 	0.00056286166 	1.2651587
0.00066331658 	-0.026479726 	0.00056286166 	1.2651587
0.00068341709 	-0.023455557 	-0.0011908886 	1.2647007
0.00070351759 	-0.023455557 	-0.0011908886 	1.2647007
0.00072361809 	-0.019973923 	-0.0022576039 	1.2652945
0.00074371859 	-0.019973923 	-0.0022576039 	1.2652945
0.0007638191 	-0.019973923 	-0.0022576039 	1.2652945
0.0007839196 	-0.016746462 	-0.0022775623 	1.2672019
0.0008040201 	-0.016746462 	-0.0022775623 	1.2672019
0.0008241206 	-0.016746462 	-0.0022775623 	1.2672019
0.00084422111 	-0.014211005 	-0.0011613993 	1.2706361
0.00086432161 	-0.014211005 	-0.0011613993 	1.2706361
0.00088442211 	-0.014211005 	-0.0011613993 	1.2706361
0.00090452261 	-0.012043421 	0.00050353161 	1.275832
0.00092462312 	-0.012043421 	0.00050353161 	1.275832
0.00094472362 	-0.0092063979 	0.0014770992 	1.2828422
0.00096482412 	-0.0069961552 	0.0025369015 	1.287448
0.00098492462 	-0.0069961552 	0.0025369015 	1.287448
0.0010050251 	-0.0010574872 	-0.00070919769 	1.2949518
0.0010251256 	-0.0010574872 	-0.00070919769 	1.2949518
0.0010452261 	-0.0047995495 	0.00035080196 	1.2910325
0.0010653266 	0.00095464601 	-0.0036173811 	1.2986402
0.0010854271 	0.00095464601 	-0.0036173811 	1.2986402
0.0011055276 	0.00095464601 	-0.0036173811 	1.2986402
0.0011256281 	0.0068694499 	-0.0097882257 	1.3043409
0.0011457286 	0.011784391 	-0.013684201 	1.3064658
0.0011658291 	0.011784391 	-0.013684201 	1.3064658
0.0011859296 	0.017081929 	-0.021399724 	1.3104464
0.0012060302 	0.012420729 	-0.017133118 	1.3083653
0.0012261307 	0.012420729 	-0.017133118 	1.3083653
0.0012462312 	0.017260273 	-0.024869098 	1.3111381
0.0012663317 	0.017260273 	-0.024869098 	1.3111381
0.0012864322 	0.017260273 	-0.024869098 	1.3111381
0.0013065327 	0.021338492 	-0.032190849 	1.312949
0.0013266332 	0.021338492 	-0.032190849 	1.312949
0.0013467337 	0.021338492 	-0.032190849 	1.312949
0.0013668342 	0.024670685 	-0.038445677 	1.314011
0.0013869347 	0.024670685 	-0.038445677 	1.314011
0.0014070352 	0.024670685 	-0.038445677 	1.314011
0.0014271357 	0.027402843 	-0.043299151 	1.3146443
0.0014472362 	0.027402843 	-0.043299151 	1.3146443
0.0014673367 	0.027402843 	-0.043299151 	1.3146443
0.0014874372 	0.029748076 	-0.046726428 	1.3152422
0.0015075377 	0.029748076 	-0.046726428 	1.3152422
0.0015276382 	0.031891156 	-0.048894226 	1.3161307
0.0015477387 	0.031891156 	-0.048894226 	1.3161307
0.0015678392 	0.031891156 	-0.048894226 	1.3161307
0.0015879397 	0.033982425 	-0.050026469 	1.3174921
0.0016080402 	0.033982425 	-0.050026469 	1.3174921
0.0016281407 	0.033982425 	-0.050026469 	1.3174921
0.0016482412 	0.036139127 	-0.050321881 	1.3193869
0.0016683417 	0.036139127 	-0.050321881 	1.3193869
0.0016884422 	0.038440298 	-0.049943052 	1.3218226
0.0017085427 	0.038440298 	-0.049943052 	1.3218226
0.0017286432 	0.038440298 	-0.049943052 	1.3218226
0.0017487437 	0.040937362 	-0.04901406 	1.3248127
0.0017688442 	0.040937362 	-0.04901406 	1.3248127
0.0017889447 	0.040937362 	-0.04901406 	1.3248127
0.0018090452 	0.04367136 	-0.047620332 	1.3284082
0.0018291457 	0.04367136 	-0.047620332 	1.3284082
0.0018492462 	0.04667115 	-0.045819746 	1.332698
0.0018693467 	0.04667115 	-0.045819746 	1.332698
0.0018894472 	0.04667115 	-0.045819746 	1.332698
0.0019095477 	0.049946837 	-0.043659583 	1.3377871
0.0019296482 	0.049946837 	-0.043659583 	1.3377871
0.0019497487 	0.053479303 	-0.041196032 	1.3437529
0.0019698492 	0.053479303 	-0.041196032 	1.3437529
0.0019899497 	0.057217427 	-0.038513591 	1.3505764
0.0020100503 	0.057217427 	-0.038513591 	1.3505764
0.0020301508 	0.057217427 	-0.038513591 	1.3505764
0.0020502513 	0.061075621 	-0.035731595 	1.3580565
0.0020703518 	0.061075621 	-0.035731595 	1.3580565
0.0020904523 	0.064918539 	-0.03298554 	1.365737
0.0021105528 	0.064918539 	-0.03298554 	1.365737
0.0021306533 	0.064918539 	-0.03298554 	1.365737
0.0021507538 	0.068552196 	-0.030387454 	1.3728897
0.0021708543 	0.068552196 	-0.030387454 	1.3728897
0.0021909548 	0.071716899 	-0.027950893 	1.3786458
0.0022110553 	0.071716899 	-0.027950893 	1.3786458
0.0022311558 	0.074085935 	-0.02552893 	1.382312
0.0022512563 	0.074085935 	-0.02552893 	1.382312
0.0022713568 	0.075303176 	-0.022744588 	1.3837002
0.0022914573 	0.075303176 	-0.022744588 	1.3837002
0.0023115578 	0.075303176 	-0.022744588 	1.3837002
0.0023316583 	0.075126465 	-0.01910121 	1.3832974
0.0023517588 	0.075126465 	-0.01910121 	1.3832974
0.0023718593 	0.073500484 	-0.014146427 	1.3820822
0.0023919598 	0.073500484 	-0.014146427 	1.3820822
0.0024120603 	0.070574499 	-0.0076343032 	1.3811536
0.0024321608 	0.070574499 	-0.0076343032 	1.3811536
0.0024522613 	0.066675572 	0.00037306067 	1.3813126
0.0024723618 	0.066675572 	0.00037306067 	1.3813126
0.0024924623 	0.062233937 	0.009526008 	1.3827638
0.0025125628 	0.062233937 	0.009526008 	1.3827638
0.0025326633 	0.057738916 	0.019318035 	1.3850459
0.0025527638 	0.057738916 	0.019318035 	1.3850459
0.0025728643 	0.05368205 	0.029293967 	1.3871941
0.0025929648 	0.05368205 	0.029293967 	1.3871941
0.0026130653 	0.050552403 	0.039242141 	1.3881075
0.0026331658 	0.050552403 	0.039242141 	1.3881075
0.0026532663 	0.04883039 	0.049173903 	1.3868788
0.0026733668 	0.04883039 	0.049173903 	1.3868788
0.0026934673 	0.048865592 	0.058907499 	1.3826743
0.0027135678 	0.048865592 	0.058907499 	1.3826743
0.0027336683 	0.050608064 	0.067465439 	1.3743682
0.0027537688 	0.050608064 	0.067465439 	1.3743682
0.0027738693 	0.053399249 	0.073061109 	1.360683
0.0027939698 	0.053399249 	0.073061109 	1.360683
0.0028140704 	0.056151899 	0.074090794 	1.3411623
0.0028341709 	0.056151899 	0.074090794 	1.3411623
0.0028542714 	0.057797949 	0.07028924 	1.317028
0.0028743719 	0.057696821 	0.062861988 	1.2909467
0.0028944724 	0.057696821 	0.062861988 	1.2909467
0.0029145729 	0.055699585 	0.053697114 	1.2660713
0.0029346734 	0.055699585 	0.053697114 	1.2660713
0.0029547739 	0.052034021 	0.04450237 	1.2451599
0.0029748744 	0.052034021 	0.04450237 	1.2451599
0.0029949749 	0.047203858 	0.036499875 	1.2299849
0.0030150754 	0.041971948 	0.030641124 	1.2210069
0.0030351759 	0.041971948 	0.030641124 	1.2210069
0.0030552764 	0.037154594 	0.027622877 	1.2172945
0.0030753769 	0.037154594 	0.027622877 	1.2172945
0.0030954774 	0.033313062 	0.027454186 	1.2169962
0.0031155779 	0.030614006 	0.0290914 	1.2180826
0.0031356784 	0.030614006 	0.0290914 	1.2180826
0.0031557789 	0.028823218 	0.030797558 	1.2188798
0.0031758794 	0.028823218 	0.030797558 	1.2188798
0.0031959799 	0.027625571 	0.030894442 	1.2181485
0.0032160804 	0.026784237 	0.028308043 	1.214965
0.0032361809 	0.026784237 	0.028308043 	1.214965
0.0032562814 	0.026161901 	0.022732691 	1.208786
0.0032763819 	0.025745324 	0.014501901 	1.1996927
0.0032964824 	0.025745324 	0.014501901 	1.1996927
0.0033165829 	0.025676016 	0.0044507441 	1.1885293
0.0033366834 	0.026091045 	-0.006169916 	1.1764438
0.0033567839 	0.026091045 	-0.006169916 	1.1764438
0.0033768844 	0.027089426 	-0.015878567 	1.1640527
0.0033969849 	0.028670967 	-0.023222605 	1.151007
0.0034170854 	0.028670967 	-0.023222605 	1.151007
0.0034371859 	0.030649457 	-0.027083471 	1.1367887
0.0034572864 	0.032563455 	-0.027213508 	1.122374
0.0034773869 	0.033932463 	-0.024341936 	1.1105983
0.0034974874 	0.033932463 	-0.024341936 	1.1105983
0.0035175879 	0.03442614 	-0.019497144 	1.1039142
0.0035376884 	0.034126554 	-0.013162925 	1.1017812
0.0035577889 	0.033443289 	-0.0050120706 	1.0998429
0.0035778894 	0.033443289 	-0.0050120706 	1.0998429
0.0035979899 	0.033262307 	0.0054583916 	1.0919309
0.0036180905 	0.03441971 	0.018172165 	1.073027
0.003638191 	0.037031534 	0.032114487 	1.0413999
0.0036582915 	0.037031534 	0.032114487 	1.0413999
0.003678392 	0.040413306 	0.045338046 	0.99947676
0.0036984925 	0.043270363 	0.055165432 	0.95332115
0.003718593 	0.044157046 	0.058672359 	0.91057328
0.0037386935 	0.042060121 	0.053712215 	0.87713197
0.003758794 	0.036846914 	0.04026184 	0.85368203
0.0037788945 	0.036846914 	0.04026184 	0.85368203
0.003798995 	0.029389647 	0.021009828 	0.83383561
0.0038190955 	0.021213359 	0.00026316772 	0.80591028
0.003839196 	0.013811357 	-0.018231385 	0.75839668
0.0038592965 	0.0081187427 	-0.03248735 	0.68622751
0.003879397 	0.0043360808 	-0.041993897 	0.59231923
0.0038994975 	0.002117947 	-0.046502283 	0.48450805
0.003919598 	0.00093628074 	-0.045651434 	0.37125886
0.0039396985 	0.00036166511 	-0.039302438 	0.25890738
0.003959799 	0.00010030479 	-0.027649995 	0.15092385
0.0039798995 	-8.4819676e-06 	-0.010934448 	0.048580739
0.004 	-8.4819676e-06 	-0.010934448 	0.048580739
