0 	-0.0035694496 	0.043234012 	1.3598069
2.0100503e-05 	-0.039275197 	-0.0057381305 	1.3549587
4.0201005e-05 	-0.039275197 	-0.0057381305 	1.3549587
6.0301508e-05 	-0.02735382 	-0.022721551 	1.3494946
8.040201e-05 	-0.02735382 	-0.022721551 	1.3494946
0.00010050251 	-0.02735382 	-0.022721551 	1.3494946
0.00012060302 	-0.018675677 	-0.025198735 	1.3436545
0.00014070352 	-0.018675677 	-0.025198735 	1.3436545
0.00016080402 	-0.018675677 	-0.025198735 	1.3436545
0.00018090452 	-0.011385914 	-0.025048357 	1.3378016
0.00020100503 	-0.011385914 	-0.025048357 	1.3378016
0.00022110553 	-0.011385914 	-0.025048357 	1.3378016
0.00024120603 	-0.0047762264 	-0.023927837 	1.3322719
0.00026130653 	-0.0047762264 	-0.023927837 	1.3322719
0.00028140704 	0.0011576491 	-0.022251042 	1.3272868
0.00030150754 	0.0011576491 	-0.022251042 	1.3272868
0.00032160804 	0.0011576491 	-0.022251042 	1.3272868
0.00034170854 	0.00623182 	-0.020066567 	1.322978
0.00036180905 	0.00623182 	-0.020066567 	1.322978
0.00038190955 	0.00623182 	-0.020066567 	1.322978
0.00040201005 	0.010286842 	-0.017337952 	1.3194188
0.00042211055 	0.010286842 	-0.017337952 	1.3194188
0.00044221106 	0.010286842 	-0.017337952 	1.3194188
0.00046231156 	0.013289349 	-0.014053878 	1.3166676
0.00048241206 	0.013289349 	-0.014053878 	1.3166676
0.00050251256 	0.015398226 	-0.010278143 	1.3148317
0.00052261307 	0.015398226 	-0.010278143 	1.3148317
0.00054271357 	0.015398226 	-0.010278143 	1.3148317
0.00056281407 	0.016979785 	-0.0061465802 	1.3140798
0.00058291457 	0.016979785 	-0.0061465802 	1.3140798
0.00060301508 	0.016979785 	-0.0061465802 	1.3140798
0.00062311558 	0.018554212 	-0.0018235955 	1.3145648
0.00064321608 	0.018554212 	-0.0018235955 	1.3145648
0.00066331658 	0.018554212 	-0.0018235955 	1.3145648
0.00068341709 	0.02067848 	0.0025696686 	1.3162769
0.00070351759 	0.02067848 	0.0025696686 	1.3162769
0.00072361809 	0.023801934 	0.0069694512 	1.3189623
0.00074371859 	0.023801934 	0.0069694512 	1.3189623
0.0007638191 	0.023801934 	0.0069694512 	1.3189623
0.0007839196 	0.028106772 	0.011353576 	1.3222165
0.0008040201 	0.028106772 	0.011353576 	1.3222165
0.0008241206 	0.028106772 	0.011353576 	1.3222165
0.00084422111 	0.033523825 	0.015716081 	1.3256239
0.00086432161 	0.033523825 	0.015716081 	1.3256239
0.00088442211 	0.033523825 	0.015716081 	1.3256239
0.00090452261 	0.039633817 	0.01995841 	1.3289101
0.00092462312 	0.039633817 	0.01995841 	1.3289101
0.00094472362 	0.046043446 	0.023882847 	1.3319417
0.00096482412 	0.046043446 	0.023882847 	1.3319417
0.00098492462 	0.046043446 	0.023882847 	1.3319417
0.0010050251 	0.053409747 	0.032621396 	1.3396212
0.0010251256 	0.053409747 	0.032621396 	1.3396212
0.0010452261 	0.053409747 	0.032621396 	1.3396212
0.0010653266 	0.057295215 	0.036423081 	1.3389055
0.0010854271 	0.057295215 	0.036423081 	1.3389055
0.0011055276 	0.057295215 	0.036423081 	1.3389055
0.0011256281 	0.059658207 	0.038329369 	1.3361725
0.0011457286 	0.059658207 	0.038329369 	1.3361725
0.0011658291 	0.059658207 	0.038329369 	1.3361725
0.0011859296 	0.060424419 	0.038069516 	1.331378
0.0012060302 	0.060424419 	0.038069516 	1.331378
0.0012261307 	0.060424419 	0.038069516 	1.331378
0.0012462312 	0.059879369 	0.035412351 	1.3249213
0.0012663317 	0.059879369 	0.035412351 	1.3249213
0.0012864322 	0.059879369 	0.035412351 	1.3249213
0.0013065327 	0.058126562 	0.030380552 	1.3175598
0.0013266332 	0.058126562 	0.030380552 	1.3175598
0.0013467337 	0.058126562 	0.030380552 	1.3175598
0.0013668342 	0.054901333 	0.023123701 	1.3099256
0.0013869347 	0.054901333 	0.023123701 	1.3099256
0.0014070352 	0.054901333 	0.023123701 	1.3099256
0.0014271357 	0.049311508 	0.013612648 	1.3021588
0.0014472362 	0.049311508 	0.013612648 	1.3021588
0.0014673367 	0.049311508 	0.013612648 	1.3021588
0.0014874372 	0.0400203 	0.00099307701 	1.2938051
0.0015075377 	0.0400203 	0.00099307701 	1.2938051
0.0015276382 	0.025290614 	-0.015833581 	1.2834178
0.0015477387 	0.025290614 	-0.015833581 	1.2834178
0.0015678392 	0.025290614 	-0.015833581 	1.2834178
0.0015879397 	0.0060438933 	-0.034397739 	1.2671022
0.0016080402 	0.0060438933 	-0.034397739 	1.2671022
0.0016281407 	0.0060438933 	-0.034397739 	1.2671022
0.0016482412 	-0.01229933 	-0.047432126 	1.2431904
0.0016683417 	-0.01229933 	-0.047432126 	1.2431904
0.0016884422 	-0.025520974 	-0.052682361 	1.2212365
0.0017085427 	-0.025520974 	-0.052682361 	1.2212365
0.0017286432 	-0.025520974 	-0.052682361 	1.2212365
0.0017487437 	-0.03363776 	-0.056822466 	1.2111237
0.0017688442 	-0.03363776 	-0.056822466 	1.2111237
0.0017889447 	-0.03363776 	-0.056822466 	1.2111237
0.0018090452 	-0.038751192 	-0.063418172 	1.2094124
0.0018291457 	-0.038751192 	-0.063418172 	1.2094124
0.0018492462 	-0.042409882 	-0.06971205 	1.2089788
0.0018693467 	-0.042409882 	-0.06971205 	1.2089788
0.0018894472 	-0.042409882 	-0.06971205 	1.2089788
0.0019095477 	-0.044820085 	-0.074496796 	1.2066045
0.0019296482 	-0.044820085 	-0.074496796 	1.2066045
0.0019497487 	-0.046006885 	-0.078797811 	1.2005823
0.0019698492 	-0.046006885 	-0.078797811 	1.2005823
0.0019899497 	-0.046006885 	-0.078797811 	1.2005823
0.0020100503 	-0.046033166 	-0.082909516 	1.1897151
0.0020301508 	-0.046033166 	-0.082909516 	1.1897151
0.0020502513 	-0.04436133 	-0.086985128 	1.1743265
0.0020703518 	-0.04436133 	-0.086985128 	1.1743265
0.0020904523 	-0.04068236 	-0.091926603 	1.1550578
0.0021105528 	-0.04068236 	-0.091926603 	1.1550578
0.0021306533 	-0.04068236 	-0.091926603 	1.1550578
0.0021507538 	-0.03529721 	-0.097813293 	1.1318815
0.0021708543 	-0.03529721 	-0.097813293 	1.1318815
0.0021909548 	-0.028715006 	-0.10171038 	1.1063115
0.0022110553 	-0.028715006 	-0.10171038 	1.1063115
0.0022311558 	-0.021894626 	-0.098985805 	1.0823845
0.0022512563 	-0.021894626 	-0.098985805 	1.0823845
0.0022713568 	-0.016306381 	-0.087895367 	1.0645159
0.0022914573 	-0.016306381 	-0.087895367 	1.0645159
0.0023115578 	-0.016306381 	-0.087895367 	1.0645159
0.0023316583 	-0.013039038 	-0.071252222 	1.0562315
0.0023517588 	-0.013039038 	-0.071252222 	1.0562315
0.0023718593 	-0.012111868 	-0.053339473 	1.0591147
0.0023919598 	-0.012111868 	-0.053339473 	1.0591147
0.0024120603 	-0.012729856 	-0.036684968 	1.071602
0.0024321608 	-0.012729856 	-0.036684968 	1.071602
0.0024522613 	-0.014120823 	-0.021728421 	1.0892935
0.0024723618 	-0.014120823 	-0.021728421 	1.0892935
0.0024924623 	-0.015849389 	-0.0080271696 	1.1069166
0.0025125628 	-0.015849389 	-0.0080271696 	1.1069166
0.0025326633 	-0.017566168 	0.0047794026 	1.1204356
0.0025527638 	-0.017566168 	0.0047794026 	1.1204356
0.0025728643 	-0.019189513 	0.016497305 	1.1278375
0.0025929648 	-0.019189513 	0.016497305 	1.1278375
0.0026130653 	-0.020778177 	0.026494757 	1.1289867
0.0026331658 	-0.020778177 	0.026494757 	1.1289867
0.0026532663 	-0.022192363 	0.033877833 	1.124867
0.0026733668 	-0.022192363 	0.033877833 	1.124867
0.0026934673 	-0.023272085 	0.037903367 	1.117275
0.0027135678 	-0.023272085 	0.037903367 	1.117275
0.0027336683 	-0.023886119 	0.038267891 	1.1084132
0.0027537688 	-0.023886119 	0.038267891 	1.1084132
0.0027738693 	-0.023988686 	0.035273711 	1.1004039
0.0027939698 	-0.023988686 	0.035273711 	1.1004039
0.0028140704 	-0.023578976 	0.029909475 	1.0948925
0.0028341709 	-0.023578976 	0.029909475 	1.0948925
0.0028542714 	-0.022571717 	0.023693762 	1.0926572
0.0028743719 	-0.020810188 	0.018134463 	1.0934631
0.0028944724 	-0.020810188 	0.018134463 	1.0934631
0.0029145729 	-0.018151571 	0.014167221 	1.0965058
0.0029346734 	-0.018151571 	0.014167221 	1.0965058
0.0029547739 	-0.014582918 	0.011956033 	1.1009533
0.0029748744 	-0.014582918 	0.011956033 	1.1009533
0.0029949749 	-0.010243561 	0.011152023 	1.106208
0.0030150754 	-0.0053869258 	0.0110774 	1.1117353
0.0030351759 	-0.0053869258 	0.0110774 	1.1117353
0.0030552764 	-0.00030144674 	0.010693374 	1.1167982
0.0030753769 	-0.00030144674 	0.010693374 	1.1167982
0.0030954774 	0.0047881696 	0.0088712792 	1.1203932
0.0031155779 	0.0097706673 	0.0049536051 	1.1213831
0.0031356784 	0.0097706673 	0.0049536051 	1.1213831
0.0031557789 	0.014611224 	-0.00091509426 	1.1189887
0.0031758794 	0.014611224 	-0.00091509426 	1.1189887
0.0031959799 	0.019295144 	-0.0078888166 	1.1130898
0.0032160804 	0.023826143 	-0.014810393 	1.1041424
0.0032361809 	0.023826143 	-0.014810393 	1.1041424
0.0032562814 	0.028246306 	-0.020722266 	1.0929621
0.0032763819 	0.03256675 	-0.025095549 	1.0803793
0.0032964824 	0.03256675 	-0.025095549 	1.0803793
0.0033165829 	0.036827482 	-0.027833931 	1.0670794
0.0033366834 	0.041033431 	-0.029175336 	1.0535094
0.0033567839 	0.041033431 	-0.029175336 	1.0535094
0.0033768844 	0.045148404 	-0.029631444 	1.0398666
0.0033969849 	0.049132756 	-0.02986976 	1.0261894
0.0034170854 	0.049132756 	-0.02986976 	1.0261894
0.0034371859 	0.052841393 	-0.030511574 	1.012725
0.0034572864 	0.055996547 	-0.031856245 	1.0002416
0.0034773869 	0.058163375 	-0.033659635 	0.99022187
0.0034974874 	0.058163375 	-0.033659635 	0.99022187
0.0035175879 	0.058827159 	-0.035235972 	0.98418923
0.0035376884 	0.057507897 	-0.03585771 	0.98272107
0.0035577889 	0.053937919 	-0.035187538 	0.98503453
0.0035778894 	0.053937919 	-0.035187538 	0.98503453
0.0035979899 	0.048266948 	-0.03334186 	0.98931982
0.0036180905 	0.041123104 	-0.030523568 	0.99339311
0.003638191 	0.033485741 	-0.026628504 	0.99534474
0.0036582915 	0.033485741 	-0.026628504 	0.99534474
0.003678392 	0.02630059 	-0.021087872 	0.99399565
0.0036984925 	0.020210035 	-0.012938826 	0.9894529
0.003718593 	0.015298467 	-0.0010786279 	0.98324796
0.0037386935 	0.01113091 	0.015134494 	0.97694763
0.003758794 	0.0072285424 	0.034898617 	0.96920783
0.0037788945 	0.0072285424 	0.034898617 	0.96920783
0.003798995 	0.0034413797 	0.055207068 	0.95294676
0.0038190955 	0.00018021333 	0.071511713 	0.91622359
0.003839196 	-0.001960818 	0.080035713 	0.84918796
0.0038592965 	-0.002859697 	0.079894253 	0.75246115
0.003879397 	-0.0029314144 	0.073098482 	0.6372502
0.0038994975 	-0.002614851 	0.062715804 	0.51644785
0.003919598 	-0.0020778205 	0.050925347 	0.39737494
0.0039396985 	-0.0013688232 	0.038409895 	0.28177997
0.003959799 	-0.00062232477 	0.024930771 	0.16892163
0.0039798995 	-8.2760044e-05 	0.0096473905 	0.057092805
0.004 	-8.2760044e-05 	0.0096473905 	0.057092805
