0 	-0.054739381 	-0.010082325 	1.4666438
2.0100503e-05 	-0.020696178 	0.056041105 	1.4524681
4.0201005e-05 	-0.020696178 	0.056041105 	1.4524681
6.0301508e-05 	-0.0030984676 	0.061183045 	1.4326803
8.040201e-05 	-0.0030984676 	0.061183045 	1.4326803
0.00010050251 	-0.0030984676 	0.061183045 	1.4326803
0.00012060302 	-0.004017657 	0.059856413 	1.4105153
0.00014070352 	-0.004017657 	0.059856413 	1.4105153
0.00016080402 	-0.004017657 	0.059856413 	1.4105153
0.00018090452 	-0.0070506789 	0.057005249 	1.3895884
0.00020100503 	-0.0070506789 	0.057005249 	1.3895884
0.00022110553 	-0.0070506789 	0.057005249 	1.3895884
0.00024120603 	-0.0090926738 	0.055345113 	1.3726704
0.00026130653 	-0.0090926738 	0.055345113 	1.3726704
0.00028140704 	-0.0097207344 	0.057038389 	1.361229
0.00030150754 	-0.0097207344 	0.057038389 	1.361229
0.00032160804 	-0.0097207344 	0.057038389 	1.361229
0.00034170854 	-0.0094821006 	0.061793535 	1.355241
0.00036180905 	-0.0094821006 	0.061793535 	1.355241
0.00038190955 	-0.0094821006 	0.061793535 	1.355241
0.00040201005 	-0.0091392994 	0.067006382 	1.3532745
0.00042211055 	-0.0091392994 	0.067006382 	1.3532745
0.00044221106 	-0.0091392994 	0.067006382 	1.3532745
0.00046231156 	-0.0091214189 	0.069831356 	1.35312
0.00048241206 	-0.0091214189 	0.069831356 	1.35312
0.00050251256 	-0.0005780755 	0.072106148 	1.3521512
0.00052261307 	-0.0005780755 	0.072106148 	1.3521512
0.00054271357 	-0.0005780755 	0.072106148 	1.3521512
0.00056281407 	-0.0020883856 	0.069840281 	1.350175
0.00058291457 	-0.0020883856 	0.069840281 	1.350175
0.00060301508 	-0.0020883856 	0.069840281 	1.350175
0.00062311558 	-0.0041804176 	0.065600631 	1.3457924
0.00064321608 	-0.0041804176 	0.065600631 	1.3457924
0.00066331658 	-0.0041804176 	0.065600631 	1.3457924
0.00068341709 	-0.01309712 	0.05447482 	1.3384776
0.00070351759 	-0.01309712 	0.05447482 	1.3384776
0.00072361809 	-0.013889442 	0.048387401 	1.3283214
0.00074371859 	-0.013889442 	0.048387401 	1.3283214
0.0007638191 	-0.013889442 	0.048387401 	1.3283214
0.0007839196 	-0.013979222 	0.042044556 	1.3161776
0.0008040201 	-0.013979222 	0.042044556 	1.3161776
0.0008241206 	-0.013979222 	0.042044556 	1.3161776
0.00084422111 	-0.013636973 	0.035289615 	1.3024266
0.00086432161 	-0.013636973 	0.035289615 	1.3024266
0.00088442211 	-0.013636973 	0.035289615 	1.3024266
0.00090452261 	-0.013264874 	0.028271064 	1.2875883
0.00092462312 	-0.013264874 	0.028271064 	1.2875883
0.00094472362 	-0.013160142 	0.021450864 	1.2719821
0.00096482412 	-0.013160142 	0.021450864 	1.2719821
0.00098492462 	-0.013160142 	0.021450864 	1.2719821
0.0010050251 	-0.013505118 	0.015092241 	1.2542072
0.0010251256 	-0.013505118 	0.015092241 	1.2542072
0.0010452261 	-0.013505118 	0.015092241 	1.2542072
0.0010653266 	-0.014678504 	0.010728919 	1.233418
0.0010854271 	-0.014678504 	0.010728919 	1.233418
0.0011055276 	-0.014678504 	0.010728919 	1.233418
0.0011256281 	-0.017213224 	0.010166207 	1.2111501
0.0011457286 	-0.017213224 	0.010166207 	1.2111501
0.0011658291 	-0.02079567 	0.018259947 	1.2053275
0.0011859296 	-0.025004812 	0.022633116 	1.1846481
0.0012060302 	-0.02133275 	0.013522675 	1.1903746
0.0012261307 	-0.02133275 	0.013522675 	1.1903746
0.0012462312 	-0.026811172 	0.018698639 	1.1736338
0.0012663317 	-0.026811172 	0.018698639 	1.1736338
0.0012864322 	-0.026811172 	0.018698639 	1.1736338
0.0013065327 	-0.032809272 	0.022303505 	1.1620135
0.0013266332 	-0.032809272 	0.022303505 	1.1620135
0.0013467337 	-0.032809272 	0.022303505 	1.1620135
0.0013668342 	-0.038317911 	0.02173531 	1.1565372
0.0013869347 	-0.038317911 	0.02173531 	1.1565372
0.0014070352 	-0.038317911 	0.02173531 	1.1565372
0.0014271357 	-0.04269276 	0.016654579 	1.1584159
0.0014472362 	-0.04269276 	0.016654579 	1.1584159
0.0014673367 	-0.04269276 	0.016654579 	1.1584159
0.0014874372 	-0.045879685 	0.0089530094 	1.1672304
0.0015075377 	-0.045879685 	0.0089530094 	1.1672304
0.0015276382 	-0.0481675 	0.0010173096 	1.1799813
0.0015477387 	-0.0481675 	0.0010173096 	1.1799813
0.0015678392 	-0.051459806 	0.0095714968 	1.1915757
0.0015879397 	-0.053547251 	0.0028335307 	1.2039855
0.0016080402 	-0.053547251 	0.0028335307 	1.2039855
0.0016281407 	-0.053547251 	0.0028335307 	1.2039855
0.0016482412 	-0.050615775 	-0.013194656 	1.201928
0.0016683417 	-0.050615775 	-0.013194656 	1.201928
0.0016884422 	-0.050583601 	-0.020487322 	1.2057678
0.0017085427 	-0.050583601 	-0.020487322 	1.2057678
0.0017286432 	-0.050583601 	-0.020487322 	1.2057678
0.0017487437 	-0.049785602 	-0.028036666 	1.2031021
0.0017688442 	-0.049785602 	-0.028036666 	1.2031021
0.0017889447 	-0.049785602 	-0.028036666 	1.2031021
0.0018090452 	-0.048455268 	-0.035587593 	1.1939196
0.0018291457 	-0.048455268 	-0.035587593 	1.1939196
0.0018492462 	-0.046928199 	-0.042793753 	1.1794087
0.0018693467 	-0.046928199 	-0.042793753 	1.1794087
0.0018894472 	-0.046928199 	-0.042793753 	1.1794087
0.0019095477 	-0.045633 	-0.049076468 	1.1618172
0.0019296482 	-0.045633 	-0.049076468 	1.1618172
0.0019497487 	-0.0448987 	-0.053750239 	1.1438276
0.0019698492 	-0.0448987 	-0.053750239 	1.1438276
0.0019899497 	-0.044877874 	-0.056382645 	1.1277267
0.0020100503 	-0.044877874 	-0.056382645 	1.1277267
0.0020301508 	-0.044877874 	-0.056382645 	1.1277267
0.0020502513 	-0.045633377 	-0.057022644 	1.1149532
0.0020703518 	-0.045633377 	-0.057022644 	1.1149532
0.0020904523 	-0.047241733 	-0.056074318 	1.1061975
0.0021105528 	-0.047241733 	-0.056074318 	1.1061975
0.0021306533 	-0.047241733 	-0.056074318 	1.1061975
0.0021507538 	-0.049765258 	-0.054018438 	1.1015685
0.0021708543 	-0.049765258 	-0.054018438 	1.1015685
0.0021909548 	-0.05316984 	-0.051212384 	1.1006481
0.0022110553 	-0.05316984 	-0.051212384 	1.1006481
0.0022311558 	-0.057262973 	-0.047818418 	1.1025854
0.0022512563 	-0.057262973 	-0.047818418 	1.1025854
0.0022713568 	-0.061717621 	-0.043879101 	1.1062646
0.0022914573 	-0.061717621 	-0.043879101 	1.1062646
0.0023115578 	-0.061717621 	-0.043879101 	1.1062646
0.0023316583 	-0.066129114 	-0.039470468 	1.1103967
0.0023517588 	-0.066129114 	-0.039470468 	1.1103967
0.0023718593 	-0.070093852 	-0.034786051 	1.1136767
0.0023919598 	-0.070093852 	-0.034786051 	1.1136767
0.0024120603 	-0.07336669 	-0.030189075 	1.1150221
0.0024321608 	-0.07336669 	-0.030189075 	1.1150221
0.0024522613 	-0.075865456 	-0.02604593 	1.1138312
0.0024723618 	-0.075865456 	-0.02604593 	1.1138312
0.0024924623 	-0.077500467 	-0.022532896 	1.1101244
0.0025125628 	-0.077500467 	-0.022532896 	1.1101244
0.0025326633 	-0.078243389 	-0.019645634 	1.1044714
0.0025527638 	-0.078243389 	-0.019645634 	1.1044714
0.0025728643 	-0.07805738 	-0.017346232 	1.0977053
0.0025929648 	-0.07805738 	-0.017346232 	1.0977053
0.0026130653 	-0.076871446 	-0.0157059 	1.0907411
0.0026331658 	-0.076871446 	-0.0157059 	1.0907411
0.0026532663 	-0.074577323 	-0.014905421 	1.0843163
0.0026733668 	-0.074577323 	-0.014905421 	1.0843163
0.0026934673 	-0.071170784 	-0.015034911 	1.0789305
0.0027135678 	-0.071170784 	-0.015034911 	1.0789305
0.0027336683 	-0.06678689 	-0.016163976 	1.0748257
0.0027537688 	-0.06678689 	-0.016163976 	1.0748257
0.0027738693 	-0.061513212 	-0.018322345 	1.0721129
0.0027939698 	-0.061513212 	-0.018322345 	1.0721129
0.0028140704 	-0.055539873 	-0.021556835 	1.0708527
0.0028341709 	-0.055539873 	-0.021556835 	1.0708527
0.0028542714 	-0.04896532 	-0.025983946 	1.0710857
0.0028743719 	-0.041859175 	-0.031655066 	1.0728864
0.0028944724 	-0.041859175 	-0.031655066 	1.0728864
0.0029145729 	-0.034335264 	-0.038528948 	1.0762699
0.0029346734 	-0.034335264 	-0.038528948 	1.0762699
0.0029547739 	-0.026444949 	-0.046444128 	1.0811767
0.0029748744 	-0.026444949 	-0.046444128 	1.0811767
0.0029949749 	-0.01823158 	-0.055155077 	1.0874573
0.0030150754 	-0.0097663564 	-0.064410567 	1.094885
0.0030351759 	-0.0097663564 	-0.064410567 	1.094885
0.0030552764 	-0.0011380459 	-0.073991443 	1.103161
0.0030753769 	-0.0011380459 	-0.073991443 	1.103161
0.0030954774 	0.007683776 	-0.083757867 	1.1119189
0.0031155779 	0.016863409 	-0.093546639 	1.120701
0.0031356784 	0.016863409 	-0.093546639 	1.120701
0.0031557789 	0.026474638 	-0.10304487 	1.1289072
0.0031758794 	0.026474638 	-0.10304487 	1.1289072
0.0031959799 	0.036451624 	-0.11195368 	1.1358496
0.0032160804 	0.046585614 	-0.12000305 	1.140787
0.0032361809 	0.046585614 	-0.12000305 	1.140787
0.0032562814 	0.056529414 	-0.12694805 	1.1429769
0.0032763819 	0.065850384 	-0.13246364 	1.1417688
0.0032964824 	0.065850384 	-0.13246364 	1.1417688
0.0033165829 	0.074046939 	-0.13608422 	1.1367491
0.0033366834 	0.080583479 	-0.13721593 	1.1279186
0.0033567839 	0.080583479 	-0.13721593 	1.1279186
0.0033768844 	0.084986095 	-0.13524438 	1.1158026
0.0033969849 	0.086964935 	-0.12971698 	1.1013759
0.0034170854 	0.086964935 	-0.12971698 	1.1013759
0.0034371859 	0.086507045 	-0.12052391 	1.0858034
0.0034572864 	0.083878031 	-0.10799396 	1.0701476
0.0034773869 	0.07952075 	-0.092856389 	1.0551971
0.0034974874 	0.07952075 	-0.092856389 	1.0551971
0.0035175879 	0.073899816 	-0.076089499 	1.041444
0.0035376884 	0.067365368 	-0.05874935 	1.0291301
0.0035577889 	0.060145321 	-0.041866726 	1.0183824
0.0035778894 	0.060145321 	-0.041866726 	1.0183824
0.0035979899 	0.052404964 	-0.026300208 	1.009521
0.0036180905 	0.044120561 	-0.012139206 	1.0029313
0.003638191 	0.035533976 	0.0015750748 	0.99904342
0.0036582915 	0.035533976 	0.0015750748 	0.99904342
0.003678392 	0.02723594 	0.016494967 	0.99722693
0.0036984925 	0.01986401 	0.033546867 	0.99444822
0.003718593 	0.013910795 	0.051541554 	0.98527316
0.0037386935 	0.0095198134 	0.067418188 	0.96381085
0.003758794 	0.0064056448 	0.078190964 	0.92649277
0.0037788945 	0.0064056448 	0.078190964 	0.92649277
0.003798995 	0.003998194 	0.082825748 	0.87363009
0.0038190955 	0.0018222494 	0.082417352 	0.80837887
0.003839196 	-0.00011966986 	0.078768944 	0.73389349
0.0038592965 	-0.0013916503 	0.072841491 	0.65156676
0.003879397 	-0.0016993823 	0.064523151 	0.56202955
0.0038994975 	-0.0012902533 	0.053848527 	0.46659465
0.003919598 	-0.00069072047 	0.041981811 	0.36677948
0.0039396985 	-0.00026147635 	0.030474365 	0.26365247
0.003959799 	-6.5663813e-05 	0.019736455 	0.15837229
0.0039798995 	-9.5982335e-06 	0.0082297483 	0.052555439
0.004 	-9.5982335e-06 	0.0082297483 	0.052555439
