0 	-0.050962727 	0.067090224 	1.291299
2.0100503e-05 	-0.050962727 	0.067090224 	1.291299
4.0201005e-05 	-0.050962727 	0.067090224 	1.291299
6.0301508e-05 	-0.065467692 	0.046184922 	1.2869218
8.040201e-05 	-0.065467692 	0.046184922 	1.2869218
0.00010050251 	-0.065467692 	0.046184922 	1.2869218
0.00012060302 	-0.062547026 	0.047939342 	1.2815295
0.00014070352 	-0.062547026 	0.047939342 	1.2815295
0.00016080402 	-0.062547026 	0.047939342 	1.2815295
0.00018090452 	-0.05918839 	0.054689315 	1.274942
0.00020100503 	-0.05918839 	0.054689315 	1.274942
0.00022110553 	-0.05918839 	0.054689315 	1.274942
0.00024120603 	-0.057856488 	0.062161582 	1.2669494
0.00026130653 	-0.057856488 	0.062161582 	1.2669494
0.00028140704 	-0.059622727 	0.068453891 	1.257181
0.00030150754 	-0.059622727 	0.068453891 	1.257181
0.00032160804 	-0.059622727 	0.068453891 	1.257181
0.00034170854 	-0.064860666 	0.072428333 	1.2455861
0.00036180905 	-0.064860666 	0.072428333 	1.2455861
0.00038190955 	-0.064860666 	0.072428333 	1.2455861
0.00040201005 	-0.072799355 	0.073561547 	1.233334
0.00042211055 	-0.072799355 	0.073561547 	1.233334
0.00044221106 	-0.072799355 	0.073561547 	1.233334
0.00046231156 	-0.081294606 	0.072138948 	1.2235033
0.00048241206 	-0.081294606 	0.072138948 	1.2235033
0.00050251256 	-0.087488493 	0.068235563 	1.2200569
0.00052261307 	-0.087488493 	0.068235563 	1.2200569
0.00054271357 	-0.087488493 	0.068235563 	1.2200569
0.00056281407 	-0.089757588 	0.060295831 	1.2244415
0.00058291457 	-0.089757588 	0.060295831 	1.2244415
0.00060301508 	-0.089757588 	0.060295831 	1.2244415
0.00062311558 	-0.089022524 	0.045911229 	1.2333674
0.00064321608 	-0.089022524 	0.045911229 	1.2333674
0.00066331658 	-0.089022524 	0.045911229 	1.2333674
0.00068341709 	-0.086450251 	0.025039279 	1.2422871
0.00070351759 	-0.086450251 	0.025039279 	1.2422871
0.00072361809 	-0.081179745 	0.00050507472 	1.2512696
0.00074371859 	-0.081179745 	0.00050507472 	1.2512696
0.0007638191 	-0.081179745 	0.00050507472 	1.2512696
0.0007839196 	-0.071941028 	-0.024261705 	1.2638001
0.0008040201 	-0.071941028 	-0.024261705 	1.2638001
0.0008241206 	-0.071941028 	-0.024261705 	1.2638001
0.00084422111 	-0.05894143 	-0.046176509 	1.2805157
0.00086432161 	-0.05894143 	-0.046176509 	1.2805157
0.00088442211 	-0.05894143 	-0.046176509 	1.2805157
0.00090452261 	-0.044170882 	-0.062497579 	1.2980991
0.00092462312 	-0.044170882 	-0.062497579 	1.2980991
0.00094472362 	-0.030310883 	-0.071427908 	1.3120679
0.00096482412 	-0.030310883 	-0.071427908 	1.3120679
0.00098492462 	-0.030310883 	-0.071427908 	1.3120679
0.0010050251 	-0.039819032 	-0.062918923 	1.3051028
0.0010251256 	-0.039819032 	-0.062918923 	1.3051028
0.0010452261 	-0.039819032 	-0.062918923 	1.3051028
0.0010653266 	-0.033166428 	-0.059907148 	1.3030678
0.0010854271 	-0.033166428 	-0.059907148 	1.3030678
0.0011055276 	-0.033166428 	-0.059907148 	1.3030678
0.0011256281 	-0.030322243 	-0.052652279 	1.2977447
0.0011457286 	-0.030322243 	-0.052652279 	1.2977447
0.0011658291 	-0.030322243 	-0.052652279 	1.2977447
0.0011859296 	-0.030833968 	-0.041968516 	1.2910713
0.0012060302 	-0.030833968 	-0.041968516 	1.2910713
0.0012261307 	-0.030833968 	-0.041968516 	1.2910713
0.0012462312 	-0.033732248 	-0.029309741 	1.2827977
0.0012663317 	-0.033732248 	-0.029309741 	1.2827977
0.0012864322 	-0.033732248 	-0.029309741 	1.2827977
0.0013065327 	-0.038473739 	-0.01629037 	1.2718862
0.0013266332 	-0.038473739 	-0.01629037 	1.2718862
0.0013467337 	-0.038473739 	-0.01629037 	1.2718862
0.0013668342 	-0.044468366 	-0.0050767953 	1.257502
0.0013869347 	-0.044468366 	-0.0050767953 	1.257502
0.0014070352 	-0.044468366 	-0.0050767953 	1.257502
0.0014271357 	-0.051247816 	0.0027448327 	1.2396034
0.0014472362 	-0.051247816 	0.0027448327 	1.2396034
0.0014673367 	-0.051247816 	0.0027448327 	1.2396034
0.0014874372 	-0.057439861 	0.007384239 	1.2205295
0.0015075377 	-0.057439861 	0.007384239 	1.2205295
0.0015276382 	-0.060804011 	0.010846198 	1.205901
0.0015477387 	-0.060804011 	0.010846198 	1.205901
0.0015678392 	-0.060804011 	0.010846198 	1.205901
0.0015879397 	-0.059396503 	0.016035579 	1.2009614
0.0016080402 	-0.059396503 	0.016035579 	1.2009614
0.0016281407 	-0.059396503 	0.016035579 	1.2009614
0.0016482412 	-0.052500035 	0.025547803 	1.2044618
0.0016683417 	-0.052500035 	0.025547803 	1.2044618
0.0016884422 	-0.040932833 	0.040057238 	1.2095812
0.0017085427 	-0.040932833 	0.040057238 	1.2095812
0.0017286432 	-0.040932833 	0.040057238 	1.2095812
0.0017487437 	-0.026787152 	0.056886227 	1.2106721
0.0017688442 	-0.026787152 	0.056886227 	1.2106721
0.0017889447 	-0.026787152 	0.056886227 	1.2106721
0.0018090452 	-0.012435971 	0.071317317 	1.2063094
0.0018291457 	-0.012435971 	0.071317317 	1.2063094
0.0018492462 	0.00053129969 	0.079607625 	1.1973044
0.0018693467 	0.00053129969 	0.079607625 	1.1973044
0.0018894472 	0.00053129969 	0.079607625 	1.1973044
0.0019095477 	0.010796352 	0.080067525 	1.1853514
0.0019296482 	0.010796352 	0.080067525 	1.1853514
0.0019497487 	0.017201045 	0.07251689 	1.1736282
0.0019698492 	0.017201045 	0.07251689 	1.1736282
0.0019899497 	0.019142299 	0.058093236 	1.165948
0.0020100503 	0.019142299 	0.058093236 	1.165948
0.0020301508 	0.019142299 	0.058093236 	1.165948
0.0020502513 	0.016843294 	0.039288877 	1.1642288
0.0020703518 	0.016843294 	0.039288877 	1.1642288
0.0020904523 	0.011968476 	0.019106348 	1.1668714
0.0021105528 	0.011968476 	0.019106348 	1.1668714
0.0021306533 	0.011968476 	0.019106348 	1.1668714
0.0021507538 	0.0064094332 	0.00062923572 	1.170135
0.0021708543 	0.0064094332 	0.00062923572 	1.170135
0.0021909548 	0.0015153535 	-0.014497543 	1.1714935
0.0022110553 	0.0015153535 	-0.014497543 	1.1714935
0.0022311558 	-0.0016931919 	-0.026007422 	1.1726897
0.0022512563 	-0.0016931919 	-0.026007422 	1.1726897
0.0022713568 	-0.0036736942 	-0.033894251 	1.1778806
0.0022914573 	-0.0036736942 	-0.033894251 	1.1778806
0.0023115578 	-0.0036736942 	-0.033894251 	1.1778806
0.0023316583 	-0.0060494384 	-0.037428935 	1.1896389
0.0023517588 	-0.0060494384 	-0.037428935 	1.1896389
0.0023718593 	-0.010819285 	-0.035286504 	1.2067923
0.0023919598 	-0.010819285 	-0.035286504 	1.2067923
0.0024120603 	-0.019178976 	-0.026965441 	1.2236346
0.0024321608 	-0.019178976 	-0.026965441 	1.2236346
0.0024522613 	-0.031040267 	-0.01540324 	1.2316742
0.0024723618 	-0.031040267 	-0.01540324 	1.2316742
0.0024924623 	-0.044724422 	-0.00762138 	1.2265756
0.0025125628 	-0.044724422 	-0.00762138 	1.2265756
0.0025326633 	-0.057755405 	-0.0086211201 	1.2127986
0.0025527638 	-0.057755405 	-0.0086211201 	1.2127986
0.0025728643 	-0.068385153 	-0.015335983 	1.1958024
0.0025929648 	-0.068385153 	-0.015335983 	1.1958024
0.0026130653 	-0.076153613 	-0.020458927 	1.1750152
0.0026331658 	-0.076153613 	-0.020458927 	1.1750152
0.0026532663 	-0.081446258 	-0.019666092 	1.1489263
0.0026733668 	-0.081446258 	-0.019666092 	1.1489263
0.0026934673 	-0.085288709 	-0.012795433 	1.1192244
0.0027135678 	-0.085288709 	-0.012795433 	1.1192244
0.0027336683 	-0.089190268 	-0.0018702728 	1.0885784
0.0027537688 	-0.089190268 	-0.0018702728 	1.0885784
0.0027738693 	-0.094113744 	0.010089199 	1.0590919
0.0027939698 	-0.094113744 	0.010089199 	1.0590919
0.0028140704 	-0.099765036 	0.020048347 	1.0326356
0.0028341709 	-0.099765036 	0.020048347 	1.0326356
0.0028542714 	-0.10592338 	0.026336339 	1.0107111
0.0028743719 	-0.11281468 	0.029139956 	0.99403398
0.0028944724 	-0.11281468 	0.029139956 	0.99403398
0.0029145729 	-0.12045294 	0.029226023 	0.98228479
0.0029346734 	-0.12045294 	0.029226023 	0.98228479
0.0029547739 	-0.12890839 	0.026704294 	0.97490222
0.0029748744 	-0.12890839 	0.026704294 	0.97490222
0.0029949749 	-0.13799048 	0.020768599 	0.97241816
0.0030150754 	-0.146472 	0.010562164 	0.9762693
0.0030351759 	-0.146472 	0.010562164 	0.9762693
0.0030552764 	-0.15308508 	-0.0043758463 	0.98779189
0.0030753769 	-0.15308508 	-0.0043758463 	0.98779189
0.0030954774 	-0.15700771 	-0.023631418 	1.0073003
0.0031155779 	-0.15773981 	-0.046025387 	1.0335408
0.0031356784 	-0.15773981 	-0.046025387 	1.0335408
0.0031557789 	-0.15568215 	-0.069819769 	1.0638616
0.0031758794 	-0.15568215 	-0.069819769 	1.0638616
0.0031959799 	-0.15170141 	-0.093162383 	1.0947986
0.0032160804 	-0.14657023 	-0.11477457 	1.1227857
0.0032361809 	-0.14657023 	-0.11477457 	1.1227857
0.0032562814 	-0.14077613 	-0.13423223 	1.1447443
0.0032763819 	-0.13456756 	-0.15164584 	1.1583577
0.0032964824 	-0.13456756 	-0.15164584 	1.1583577
0.0033165829 	-0.12802448 	-0.16695253 	1.1621295
0.0033366834 	-0.12099241 	-0.1795327 	1.1552572
0.0033567839 	-0.12099241 	-0.1795327 	1.1552572
0.0033768844 	-0.11295025 	-0.18824634 	1.137312
0.0033969849 	-0.1031485 	-0.19169331 	1.1079762
0.0034170854 	-0.1031485 	-0.19169331 	1.1079762
0.0034371859 	-0.091200876 	-0.18858838 	1.0673421
0.0034572864 	-0.077524662 	-0.17827213 	1.0168313
0.0034773869 	-0.063197617 	-0.16129179 	0.95965503
0.0034974874 	-0.063197617 	-0.16129179 	0.95965503
0.0035175879 	-0.049532253 	-0.13936464 	0.90013567
0.0035376884 	-0.037714269 	-0.11498074 	0.84263094
0.0035577889 	-0.028522185 	-0.090686117 	0.79052917
0.0035778894 	-0.028522185 	-0.090686117 	0.79052917
0.0035979899 	-0.022227478 	-0.06849263 	0.7456715
0.0036180905 	-0.018671887 	-0.049636009 	0.70846685
0.003638191 	-0.017398751 	-0.034518047 	0.67803637
0.0036582915 	-0.017398751 	-0.034518047 	0.67803637
0.003678392 	-0.01771629 	-0.022836215 	0.65285537
0.0036984925 	-0.018850995 	-0.013845296 	0.63119115
0.003718593 	-0.020134427 	-0.0067274507 	0.61150888
0.0037386935 	-0.021013657 	-0.00088567731 	0.59251785
0.003758794 	-0.021126145 	0.0039686955 	0.57308179
0.0037788945 	-0.021126145 	0.0039686955 	0.57308179
0.003798995 	-0.02031097 	0.007949988 	0.55207707
0.0038190955 	-0.018556321 	0.01110678 	0.52833884
0.003839196 	-0.016041526 	0.013507402 	0.50060736
0.0038592965 	-0.013002825 	0.015248205 	0.46738049
0.003879397 	-0.0096874779 	0.016411387 	0.42685905
0.0038994975 	-0.0064306225 	0.016988728 	0.37699852
0.003919598 	-0.0035849301 	0.016781158 	0.31575326
0.0039396985 	-0.0014588003 	0.015223329 	0.24154142
0.003959799 	-0.00022952628 	0.011227645 	0.15387334
0.0039798995 	7.3598671e-05 	0.0038461498 	0.054131546
0.004 	7.3598671e-05 	0.0038461498 	0.054131546
