0 	-0.0627299 	0.036411689 	1.2754431
5.5555625e-05 	-0.029883221 	0.050830487 	1.2883776
0.00011111111 	-0.0095646023 	0.037415746 	1.3078096
0.00016666667 	0.0083531203 	0.014435294 	1.3307257
0.00022222222 	0.022487329 	-0.012023762 	1.3507569
0.00027777778 	0.030678002 	-0.035227276 	1.3624903
0.00033333333 	0.033716021 	-0.051444891 	1.3659931
0.00038888889 	0.033839881 	-0.060446594 	1.3643121
0.00044444444 	0.033097942 	-0.063548647 	1.3601893
0.0005 	0.032968309 	-0.062506504 	1.3559247
0.00055555556 	0.034186488 	-0.059139505 	1.3535296
0.00061111111 	0.03681261 	-0.055006578 	1.3539856
0.00066666667 	0.040442161 	-0.051063413 	1.356847
0.00072222222 	0.044482243 	-0.047552428 	1.3609141
0.00077777778 	0.048413114 	-0.044210156 	1.3650291
0.00083333333 	0.05193173 	-0.040464791 	1.3682944
0.00088888889 	0.054933288 	-0.035831616 	1.3702149
0.00094444444 	0.057615147 	-0.030355909 	1.3707328
0.001 	0.060111474 	-0.024101072 	1.3701656
0.0010617199 	0.062380604 	-0.018016282 	1.3692574
0.0011225874 	0.064363035 	-0.013531992 	1.3688213
0.0011826143 	0.065432759 	-0.011362544 	1.3695868
0.0012418122 	0.064814399 	-0.011252019 	1.3722277
0.0013001926 	0.062887577 	-0.011224171 	1.3761252
0.0013577668 	0.061325766 	-0.0099883126 	1.3793839
0.0014145458 	0.061338033 	-0.0080161184 	1.3802953
0.0014705407 	0.062782984 	-0.0056533771 	1.3778558
0.0015257623 	0.065042706 	-0.0036652451 	1.3725054
0.0015802213 	0.068043498 	-0.0041891804 	1.3659423
0.0016339282 	0.071998189 	-0.0091223028 	1.359426
0.0016868934 	0.076224322 	-0.018553682 	1.353377
0.0017391271 	0.079422044 	-0.03094377 	1.347992
0.0017906395 	0.080482095 	-0.04433494 	1.3431292
0.0018414404 	0.078990946 	-0.057290351 	1.3377663
0.0018915398 	0.075498606 	-0.069524136 	1.3300483
0.0019409473 	0.071405824 	-0.081990899 	1.3179834
0.0019896725 	0.068373666 	-0.09594778 	1.30044
0.0020377248 	0.067683075 	-0.11217093 	1.2772899
0.0020851134 	0.069823113 	-0.13077682 	1.2491138
0.0021318476 	0.074384667 	-0.15083168 	1.2172597
0.0021779364 	0.080361775 	-0.17020268 	1.1841567
0.0022233887 	0.086686316 	-0.18638714 	1.1527197
0.0022682133 	0.092633356 	-0.19755893 	1.1252689
0.0023124189 	0.098049166 	-0.20298428 	1.1027785
0.0023560139 	0.10316579 	-0.20274897 	1.0849506
0.0023990069 	0.10835031 	-0.19735432 	1.0707795
0.0024414062 	0.11384972 	-0.18748791 	1.0592733
0.0024832199 	0.11967722 	-0.17392703 	1.0499057
0.0025244562 	0.1255253 	-0.15748327 	1.0429819
0.002565123 	0.13077265 	-0.13908906 	1.0395951
0.0026052281 	0.13463111 	-0.11991034 	1.0412374
0.0026447794 	0.13641194 	-0.10135388 	1.049209
0.0026837845 	0.13584956 	-0.084908316 	1.063753
0.0027222509 	0.13332365 	-0.071812573 	1.083323
0.0027601861 	0.12977698 	-0.062722599 	1.1048472
0.0027975974 	0.1264509 	-0.0576315 	1.1249721
0.002834492 	0.12461899 	-0.056065494 	1.1414907
0.0028708772 	0.12527709 	-0.057357865 	1.1540012
0.0029067598 	0.1289087 	-0.061006992 	1.1633233
0.0029421469 	0.13487598 	-0.065174681 	1.1689509
0.0029770452 	0.1409608 	-0.064877922 	1.1686334
0.0030114616 	0.14295915 	-0.062477623 	1.1630548
0.0030454028 	0.13704557 	-0.06161611 	1.1533569
0.0030788752 	0.12680357 	-0.061348577 	1.1454118
0.0031118853 	0.1151017 	-0.05652057 	1.1484089
0.0031444395 	0.10136654 	-0.042361388 	1.1658488
0.0031765442 	0.085799105 	-0.020450126 	1.1915486
0.0032082055 	0.070101643 	0.0031641628 	1.2156426
0.0032394295 	0.056133968 	0.023370567 	1.2320731
0.0032702223 	0.044685819 	0.038332535 	1.2403939
0.0033005899 	0.035593254 	0.048534311 	1.2431703
0.0033305381 	0.028365981 	0.055276511 	1.2433053
0.0033600727 	0.022505549 	0.059800729 	1.2427994
0.0033891994 	0.017756789 	0.063085632 	1.2425135
0.0034179239 	0.014221286 	0.065793163 	1.2423802
0.0034462517 	0.012131116 	0.068232899 	1.2417463
0.0034741882 	0.0115625 	0.070458306 	1.2397167
0.003501739 	0.012420084 	0.072254275 	1.2354785
0.0035289093 	0.014530978 	0.073315544 	1.2285016
0.0035557043 	0.017307363 	0.073285182 	1.2185054
0.0035821293 	0.01993533 	0.071870043 	1.2053212
0.0036081894 	0.021771386 	0.069033849 	1.1887853
0.0036338895 	0.022384685 	0.064907671 	1.1688607
0.0036592348 	0.021358587 	0.059646251 	1.1459271
0.00368423 	0.018370403 	0.053150601 	1.1208707
0.00370888 	0.01335593 	0.044865349 	1.0945001
0.0037331896 	0.0069621278 	0.033665019 	1.0661531
0.0037571635 	0.0004666366 	0.018327995 	1.0328388
0.0037808063 	-0.0048681754 	-0.0014976565 	0.98953542
0.0038041226 	-0.008148864 	-0.024289013 	0.9308771
0.0038271169 	-0.0091240784 	-0.046400911 	0.85372014
0.0038497936 	-0.0081647485 	-0.06319622 	0.75892543
0.0038721572 	-0.0061030767 	-0.071133337 	0.651038
0.0038942119 	-0.0037132664 	-0.069439893 	0.53602576
0.003915962 	-0.0014737237 	-0.060013547 	0.41887397
0.0039374118 	0.00024546718 	-0.04581278 	0.30241167
0.0039585653 	0.0010087999 	-0.029184462 	0.18637661
0.0039794267 	0.00045900008 	-0.010891174 	0.066267761
0.004 	0.00045900008 	-0.010891174 	0.066267761
