0 	-0.0035694496 	0.043234012 	1.3598069
2.0100503e-05 	-0.0035694496 	0.043234012 	1.3598069
4.0201005e-05 	-0.0035694496 	0.043234012 	1.3598069
6.0301508e-05 	0.019260756 	0.042104188 	1.364007
8.040201e-05 	0.019260756 	0.042104188 	1.364007
0.00010050251 	0.019260756 	0.042104188 	1.364007
0.00012060302 	0.026856031 	0.040228799 	1.3675647
0.00014070352 	0.026856031 	0.040228799 	1.3675647
0.00016080402 	0.026856031 	0.040228799 	1.3675647
0.00018090452 	0.030799538 	0.039241195 	1.3701546
0.00020100503 	0.030799538 	0.039241195 	1.3701546
0.00022110553 	0.030799538 	0.039241195 	1.3701546
0.00024120603 	0.033242666 	0.039025649 	1.3710038
0.00026130653 	0.034589618 	0.033601028 	1.3649251
0.00028140704 	0.03469721 	0.034700001 	1.3628506
0.00030150754 	0.03469721 	0.034700001 	1.3628506
0.00032160804 	0.03469721 	0.034700001 	1.3628506
0.00034170854 	0.036951007 	0.038691987 	1.365284
0.00036180905 	0.036951007 	0.038691987 	1.365284
0.00038190955 	0.036951007 	0.038691987 	1.365284
0.00040201005 	0.03886532 	0.037308663 	1.3591542
0.00042211055 	0.03886532 	0.037308663 	1.3591542
0.00044221106 	0.03886532 	0.037308663 	1.3591542
0.00046231156 	0.041119356 	0.034688055 	1.3507568
0.00048241206 	0.041119356 	0.034688055 	1.3507568
0.00050251256 	0.043992241 	0.030586009 	1.3398008
0.00052261307 	0.043992241 	0.030586009 	1.3398008
0.00054271357 	0.043992241 	0.030586009 	1.3398008
0.00056281407 	0.04719609 	0.02503196 	1.3267805
0.00058291457 	0.04719609 	0.02503196 	1.3267805
0.00060301508 	0.04719609 	0.02503196 	1.3267805
0.00062311558 	0.049999448 	0.018355331 	1.3129094
0.00064321608 	0.049999448 	0.018355331 	1.3129094
0.00066331658 	0.049999448 	0.018355331 	1.3129094
0.00068341709 	0.051271232 	0.010897377 	1.3010424
0.00070351759 	0.051271232 	0.010897377 	1.3010424
0.00072361809 	0.04941155 	0.0032907921 	1.2955882
0.00074371859 	0.04941155 	0.0032907921 	1.2955882
0.0007638191 	0.03628702 	-0.0052165841 	1.2895036
0.0007839196 	0.029460285 	-0.012629924 	1.2959336
0.0008040201 	0.029460285 	-0.012629924 	1.2959336
0.0008241206 	0.029460285 	-0.012629924 	1.2959336
0.00084422111 	0.019772347 	-0.015361711 	1.3128766
0.00086432161 	0.019772347 	-0.015361711 	1.3128766
0.00088442211 	0.019772347 	-0.015361711 	1.3128766
0.00090452261 	0.020115207 	-0.0039673318 	1.334815
0.00092462312 	0.020115207 	-0.0039673318 	1.334815
0.00094472362 	0.007661666 	0.0018295981 	1.3499698
0.00096482412 	0.007661666 	0.0018295981 	1.3499698
0.00098492462 	0.007661666 	0.0018295981 	1.3499698
0.0010050251 	-0.0021971716 	0.0068035128 	1.3521735
0.0010251256 	-0.0021971716 	0.0068035128 	1.3521735
0.0010452261 	-0.0021971716 	0.0068035128 	1.3521735
0.0010653266 	-0.0064006892 	0.003200939 	1.3318149
0.0010854271 	-0.0064006892 	0.003200939 	1.3318149
0.0011055276 	-0.0064006892 	0.003200939 	1.3318149
0.0011256281 	-0.0060778712 	-0.0072937186 	1.2912209
0.0011457286 	-0.0060778712 	-0.0072937186 	1.2912209
0.0011658291 	-0.0060778712 	-0.0072937186 	1.2912209
0.0011859296 	-0.0059346366 	-0.014113739 	1.2409997
0.0012060302 	-0.0059346366 	-0.014113739 	1.2409997
0.0012261307 	-0.0059346366 	-0.014113739 	1.2409997
0.0012462312 	-0.0089762533 	-0.0087639759 	1.1921006
0.0012663317 	-0.0089762533 	-0.0087639759 	1.1921006
0.0012864322 	-0.0089762533 	-0.0087639759 	1.1921006
0.0013065327 	-0.015856198 	0.0075594202 	1.1505641
0.0013266332 	-0.015856198 	0.0075594202 	1.1505641
0.0013467337 	-0.015856198 	0.0075594202 	1.1505641
0.0013668342 	-0.025632531 	0.027286725 	1.1183661
0.0013869347 	-0.025632531 	0.027286725 	1.1183661
0.0014070352 	-0.025632531 	0.027286725 	1.1183661
0.0014271357 	-0.036140033 	0.04356993 	1.0955387
0.0014472362 	-0.036140033 	0.04356993 	1.0955387
0.0014673367 	-0.036140033 	0.04356993 	1.0955387
0.0014874372 	-0.045552508 	0.053994058 	1.0816091
0.0015075377 	-0.045552508 	0.053994058 	1.0816091
0.0015276382 	-0.053327934 	0.060037141 	1.0746577
0.0015477387 	-0.053327934 	0.060037141 	1.0746577
0.0015678392 	-0.053327934 	0.060037141 	1.0746577
0.0015879397 	-0.059524908 	0.064010683 	1.0713651
0.0016080402 	-0.059524908 	0.064010683 	1.0713651
0.0016281407 	-0.059524908 	0.064010683 	1.0713651
0.0016482412 	-0.064226681 	0.066838482 	1.0691552
0.0016683417 	-0.064226681 	0.066838482 	1.0691552
0.0016884422 	-0.067522785 	0.068383267 	1.067219
0.0017085427 	-0.067522785 	0.068383267 	1.067219
0.0017286432 	-0.067522785 	0.068383267 	1.067219
0.0017487437 	-0.069597977 	0.068575178 	1.0657368
0.0017688442 	-0.069597977 	0.068575178 	1.0657368
0.0017889447 	-0.069597977 	0.068575178 	1.0657368
0.0018090452 	-0.07072207 	0.067644031 	1.064861
0.0018291457 	-0.07072207 	0.067644031 	1.064861
0.0018492462 	-0.071118609 	0.065785166 	1.0643241
0.0018693467 	-0.071118609 	0.065785166 	1.0643241
0.0018894472 	-0.071118609 	0.065785166 	1.0643241
0.0019095477 	-0.070953323 	0.063030123 	1.0636515
0.0019296482 	-0.070953323 	0.063030123 	1.0636515
0.0019497487 	-0.070505323 	0.059564272 	1.0625183
0.0019698492 	-0.070505323 	0.059564272 	1.0625183
0.0019899497 	-0.070316523 	0.056093942 	1.0608098
0.0020100503 	-0.070316523 	0.056093942 	1.0608098
0.0020301508 	-0.070316523 	0.056093942 	1.0608098
0.0020502513 	-0.071200275 	0.053916088 	1.0584065
0.0020703518 	-0.071200275 	0.053916088 	1.0584065
0.0020904523 	-0.073876957 	0.05438611 	1.0548839
0.0021105528 	-0.073876957 	0.05438611 	1.0548839
0.0021306533 	-0.073876957 	0.05438611 	1.0548839
0.0021507538 	-0.078438833 	0.057896748 	1.0494519
0.0021708543 	-0.078438833 	0.057896748 	1.0494519
0.0021909548 	-0.083998723 	0.06308605 	1.0413871
0.0022110553 	-0.083998723 	0.06308605 	1.0413871
0.0022311558 	-0.088985057 	0.067361848 	1.030743
0.0022512563 	-0.088985057 	0.067361848 	1.030743
0.0022713568 	-0.092084863 	0.068508474 	1.0187459
0.0022914573 	-0.092084863 	0.068508474 	1.0187459
0.0023115578 	-0.092084863 	0.068508474 	1.0187459
0.0023316583 	-0.092914212 	0.066142429 	1.0073379
0.0023517588 	-0.092914212 	0.066142429 	1.0073379
0.0023718593 	-0.091979492 	0.061547413 	0.99829072
0.0023919598 	-0.091979492 	0.061547413 	0.99829072
0.0024120603 	-0.089932118 	0.056315266 	0.99243503
0.0024321608 	-0.089932118 	0.056315266 	0.99243503
0.0024522613 	-0.08698926 	0.051137724 	0.98962726
0.0024723618 	-0.08698926 	0.051137724 	0.98962726
0.0024924623 	-0.082873972 	0.045760202 	0.98918482
0.0025125628 	-0.082873972 	0.045760202 	0.98918482
0.0025326633 	-0.077219728 	0.039657416 	0.99014419
0.0025527638 	-0.077219728 	0.039657416 	0.99014419
0.0025728643 	-0.06989264 	0.032472456 	0.99160738
0.0025929648 	-0.06989264 	0.032472456 	0.99160738
0.0026130653 	-0.060892066 	0.024251571 	0.99289549
0.0026331658 	-0.060892066 	0.024251571 	0.99289549
0.0026532663 	-0.050484519 	0.01528131 	0.99367221
0.0026733668 	-0.050484519 	0.01528131 	0.99367221
0.0026934673 	-0.039043332 	0.0059976828 	0.99386168
0.0027135678 	-0.039043332 	0.0059976828 	0.99386168
0.0027336683 	-0.026902856 	-0.0031361285 	0.99354679
0.0027537688 	-0.026902856 	-0.0031361285 	0.99354679
0.0027738693 	-0.014427989 	-0.011676377 	0.99285824
0.0027939698 	-0.014427989 	-0.011676377 	0.99285824
0.0028140704 	-0.0018475569 	-0.01921124 	0.991967
0.0028341709 	-0.0018475569 	-0.01921124 	0.991967
0.0028542714 	0.010707308 	-0.02535651 	0.99107819
0.0028743719 	0.02307186 	-0.029728371 	0.9904676
0.0028944724 	0.02307186 	-0.029728371 	0.9904676
0.0029145729 	0.035061626 	-0.032097597 	0.99035893
0.0029346734 	0.035061626 	-0.032097597 	0.99035893
0.0029547739 	0.046484827 	-0.032425718 	0.99086991
0.0029748744 	0.046484827 	-0.032425718 	0.99086991
0.0029949749 	0.057095075 	-0.030873876 	0.992018
0.0030150754 	0.066640049 	-0.027773774 	0.99372264
0.0030351759 	0.066640049 	-0.027773774 	0.99372264
0.0030552764 	0.07500608 	-0.023568535 	0.99585756
0.0030753769 	0.07500608 	-0.023568535 	0.99585756
0.0030954774 	0.082030629 	-0.018667085 	0.99835654
0.0031155779 	0.087453225 	-0.013412567 	1.0012205
0.0031356784 	0.087453225 	-0.013412567 	1.0012205
0.0031557789 	0.091076447 	-0.0080292988 	1.0045392
0.0031758794 	0.091076447 	-0.0080292988 	1.0045392
0.0031959799 	0.092735431 	-0.002607459 	1.0083881
0.0032160804 	0.092379609 	0.0029292837 	1.0127929
0.0032361809 	0.092379609 	0.0029292837 	1.0127929
0.0032562814 	0.09000112 	0.0088503478 	1.0176653
0.0032763819 	0.085592996 	0.015628286 	1.0228199
0.0032964824 	0.085592996 	0.015628286 	1.0228199
0.0033165829 	0.079284695 	0.023877234 	1.0281247
0.0033366834 	0.071394509 	0.034194537 	1.0337409
0.0033567839 	0.071394509 	0.034194537 	1.0337409
0.0033768844 	0.062391541 	0.04670533 	1.0401201
0.0033969849 	0.052894937 	0.06053087 	1.0474553
0.0034170854 	0.052894937 	0.06053087 	1.0474553
0.0034371859 	0.043666968 	0.073614382 	1.0547384
0.0034572864 	0.035449861 	0.083134827 	1.059305
0.0034773869 	0.02870854 	0.086372611 	1.0573853
0.0034974874 	0.02870854 	0.086372611 	1.0573853
0.0035175879 	0.023464326 	0.081544469 	1.0455569
0.0035376884 	0.01930715 	0.0684104 	1.0226943
0.0035577889 	0.015595597 	0.048547537 	0.99114165
0.0035778894 	0.015595597 	0.048547537 	0.99114165
0.0035979899 	0.011779255 	0.024879413 	0.9557183
0.0036180905 	0.0077101261 	0.00051552288 	0.92136193
0.003638191 	0.0035644688 	-0.022478748 	0.89139548
0.0036582915 	0.0035644688 	-0.022478748 	0.89139548
0.003678392 	-0.00011189472 	-0.043033284 	0.86691368
0.0036984925 	-0.0025948271 	-0.059850372 	0.8462515
0.003718593 	-0.0036216884 	-0.070194405 	0.82559155
0.0037386935 	-0.0033491816 	-0.071248453 	0.80119723
0.003758794 	-0.0020108202 	-0.062736579 	0.77151599
0.0037788945 	-0.0020108202 	-0.062736579 	0.77151599
0.003798995 	8.8129616e-05 	-0.047978717 	0.7369793
0.0038190955 	0.0025382133 	-0.032104085 	0.69846964
0.003839196 	0.0047470619 	-0.019048256 	0.65619894
0.0038592965 	0.0060367063 	-0.0092949946 	0.60905893
0.003879397 	0.0059702565 	-0.00086213703 	0.55410477
0.0038994975 	0.0046998738 	0.0075214062 	0.48682659
0.003919598 	0.0028514614 	0.0143114 	0.40315271
0.0039396985 	0.0011663544 	0.016670273 	0.30217641
0.003959799 	0.00012883987 	0.01332909 	0.18709684
0.0039798995 	-7.9077532e-05 	0.0052172787 	0.063525663
0.004 	-7.9077532e-05 	0.0052172787 	0.063525663
