0 	-0.0035694496 	0.043234012 	1.3598069
2.0100503e-05 	0.039040205 	0.007476264 	1.3500561
4.0201005e-05 	0.039040205 	0.007476264 	1.3500561
6.0301508e-05 	0.035666917 	-0.003296967 	1.3397777
8.040201e-05 	0.035666917 	-0.003296967 	1.3397777
0.00010050251 	0.035666917 	-0.003296967 	1.3397777
0.00012060302 	0.033249566 	0.001326807 	1.3291652
0.00014070352 	0.033249566 	0.001326807 	1.3291652
0.00016080402 	0.033249566 	0.001326807 	1.3291652
0.00018090452 	0.032371789 	0.0085253139 	1.3179674
0.00020100503 	0.032371789 	0.0085253139 	1.3179674
0.00022110553 	0.032371789 	0.0085253139 	1.3179674
0.00024120603 	0.032516744 	0.015131584 	1.3062069
0.00026130653 	0.032516744 	0.015131584 	1.3062069
0.00028140704 	0.033233443 	0.019612239 	1.2946945
0.00030150754 	0.033233443 	0.019612239 	1.2946945
0.00032160804 	0.033233443 	0.019612239 	1.2946945
0.00034170854 	0.034049811 	0.021431556 	1.284885
0.00036180905 	0.034049811 	0.021431556 	1.284885
0.00038190955 	0.034049811 	0.021431556 	1.284885
0.00040201005 	0.034625726 	0.020945008 	1.2782825
0.00042211055 	0.034625726 	0.020945008 	1.2782825
0.00044221106 	0.034625726 	0.020945008 	1.2782825
0.00046231156 	0.034956046 	0.019002009 	1.2758885
0.00048241206 	0.034956046 	0.019002009 	1.2758885
0.00050251256 	0.035251939 	0.016551224 	1.2779287
0.00052261307 	0.035251939 	0.016551224 	1.2779287
0.00054271357 	0.035251939 	0.016551224 	1.2779287
0.00056281407 	0.035583963 	0.014393051 	1.2839156
0.00058291457 	0.035583963 	0.014393051 	1.2839156
0.00060301508 	0.035583963 	0.014393051 	1.2839156
0.00062311558 	0.035641984 	0.013131782 	1.2929567
0.00064321608 	0.035641984 	0.013131782 	1.2929567
0.00066331658 	0.035641984 	0.013131782 	1.2929567
0.00068341709 	0.034836096 	0.01299144 	1.3041517
0.00070351759 	0.034836096 	0.01299144 	1.3041517
0.00072361809 	0.032629752 	0.013408789 	1.316987
0.00074371859 	0.032629752 	0.013408789 	1.316987
0.0007638191 	0.032629752 	0.013408789 	1.316987
0.0007839196 	0.028833134 	0.012787546 	1.3312788
0.0008040201 	0.028833134 	0.012787546 	1.3312788
0.0008241206 	0.028833134 	0.012787546 	1.3312788
0.00084422111 	0.023729961 	0.0090368425 	1.3465744
0.00086432161 	0.023729961 	0.0090368425 	1.3465744
0.00088442211 	0.023729961 	0.0090368425 	1.3465744
0.00090452261 	0.01793523 	0.00094177206 	1.3613839
0.00092462312 	0.01793523 	0.00094177206 	1.3613839
0.00094472362 	0.012069983 	-0.010220282 	1.3725485
0.00096482412 	0.012069983 	-0.010220282 	1.3725485
0.00098492462 	0.012069983 	-0.010220282 	1.3725485
0.0010050251 	0.0055300084 	-0.020988902 	1.3762222
0.0010251256 	0.0055300084 	-0.020988902 	1.3762222
0.0010452261 	0.0055300084 	-0.020988902 	1.3762222
0.0010653266 	-0.0030187351 	-0.026587879 	1.3701469
0.0010854271 	-0.0030187351 	-0.026587879 	1.3701469
0.0011055276 	-0.013718295 	-0.019460441 	1.3662894
0.0011256281 	-0.024077547 	-0.017216343 	1.3531132
0.0011457286 	-0.024077547 	-0.017216343 	1.3531132
0.0011658291 	-0.024077547 	-0.017216343 	1.3531132
0.0011859296 	-0.033286683 	-0.014919462 	1.341321
0.0012060302 	-0.021952478 	-0.025469143 	1.3488577
0.0012261307 	-0.021952478 	-0.025469143 	1.3488577
0.0012462312 	-0.029220234 	-0.024811758 	1.3405441
0.0012663317 	-0.029220234 	-0.024811758 	1.3405441
0.0012864322 	-0.029220234 	-0.024811758 	1.3405441
0.0013065327 	-0.034497938 	-0.025153332 	1.3339042
0.0013266332 	-0.034497938 	-0.025153332 	1.3339042
0.0013467337 	-0.034497938 	-0.025153332 	1.3339042
0.0013668342 	-0.038102984 	-0.026051066 	1.3281164
0.0013869347 	-0.038102984 	-0.026051066 	1.3281164
0.0014070352 	-0.038102984 	-0.026051066 	1.3281164
0.0014271357 	-0.040325824 	-0.027185878 	1.3228636
0.0014472362 	-0.040325824 	-0.027185878 	1.3228636
0.0014673367 	-0.040325824 	-0.027185878 	1.3228636
0.0014874372 	-0.041391362 	-0.028349215 	1.3181929
0.0015075377 	-0.041391362 	-0.028349215 	1.3181929
0.0015276382 	-0.041564361 	-0.029306443 	1.3143005
0.0015477387 	-0.041564361 	-0.029306443 	1.3143005
0.0015678392 	-0.041564361 	-0.029306443 	1.3143005
0.0015879397 	-0.041124327 	-0.029866938 	1.3114785
0.0016080402 	-0.041124327 	-0.029866938 	1.3114785
0.0016281407 	-0.041124327 	-0.029866938 	1.3114785
0.0016482412 	-0.044558268 	-0.021939058 	1.2817355
0.0016683417 	-0.040255749 	-0.02990848 	1.3100672
0.0016884422 	-0.039034872 	-0.029377383 	1.3103784
0.0017085427 	-0.039034872 	-0.029377383 	1.3103784
0.0017286432 	-0.039034872 	-0.029377383 	1.3103784
0.0017487437 	-0.037470988 	-0.028206104 	1.3126553
0.0017688442 	-0.037470988 	-0.028206104 	1.3126553
0.0017889447 	-0.037470988 	-0.028206104 	1.3126553
0.0018090452 	-0.035569143 	-0.026322174 	1.3170271
0.0018291457 	-0.035569143 	-0.026322174 	1.3170271
0.0018492462 	-0.033358489 	-0.023682778 	1.3234603
0.0018693467 	-0.033358489 	-0.023682778 	1.3234603
0.0018894472 	-0.033358489 	-0.023682778 	1.3234603
0.0019095477 	-0.030905361 	-0.020362791 	1.331689
0.0019296482 	-0.030905361 	-0.020362791 	1.331689
0.0019497487 	-0.028280809 	-0.016616871 	1.3412091
0.0019698492 	-0.028280809 	-0.016616871 	1.3412091
0.0019899497 	-0.025501649 	-0.012856265 	1.3512913
0.0020100503 	-0.025501649 	-0.012856265 	1.3512913
0.0020301508 	-0.025501649 	-0.012856265 	1.3512913
0.0020502513 	-0.022477471 	-0.0095865808 	1.3609987
0.0020703518 	-0.022477471 	-0.0095865808 	1.3609987
0.0020904523 	-0.019000594 	-0.007308534 	1.3692216
0.0021105528 	-0.019000594 	-0.007308534 	1.3692216
0.0021306533 	-0.019000594 	-0.007308534 	1.3692216
0.0021507538 	-0.014843916 	-0.0064080639 	1.3748572
0.0021708543 	-0.014843916 	-0.0064080639 	1.3748572
0.0021909548 	-0.0098484949 	-0.0070092457 	1.3770923
0.0022110553 	-0.0098484949 	-0.0070092457 	1.3770923
0.0022311558 	-0.0040840791 	-0.008811713 	1.3757691
0.0022512563 	-0.0040840791 	-0.008811713 	1.3757691
0.0022713568 	0.0020800047 	-0.011284156 	1.3714643
0.0022914573 	0.0020800047 	-0.011284156 	1.3714643
0.0023115578 	0.0020800047 	-0.011284156 	1.3714643
0.0023316583 	0.008020608 	-0.013859741 	1.3653486
0.0023517588 	0.008020608 	-0.013859741 	1.3653486
0.0023718593 	0.013091292 	-0.016092173 	1.3587797
0.0023919598 	0.013091292 	-0.016092173 	1.3587797
0.0024120603 	0.016716591 	-0.017559178 	1.3530718
0.0024321608 	0.016716591 	-0.017559178 	1.3530718
0.0024522613 	0.018601627 	-0.017804056 	1.349425
0.0024723618 	0.018601627 	-0.017804056 	1.349425
0.0024924623 	0.018906506 	-0.016446982 	1.3488271
0.0025125628 	0.018906506 	-0.016446982 	1.3488271
0.0025326633 	0.017946612 	-0.013385074 	1.3515962
0.0025527638 	0.017946612 	-0.013385074 	1.3515962
0.0025728643 	0.016273288 	-0.0089522159 	1.3572516
0.0025929648 	0.016273288 	-0.0089522159 	1.3572516
0.0026130653 	0.01451706 	-0.0037106145 	1.3647209
0.0026331658 	0.01451706 	-0.0037106145 	1.3647209
0.0026532663 	0.013025025 	0.001802575 	1.3727392
0.0026733668 	0.013025025 	0.001802575 	1.3727392
0.0026934673 	0.011965293 	0.0074006773 	1.3801724
0.0027135678 	0.011965293 	0.0074006773 	1.3801724
0.0027336683 	0.01159116 	0.01318865 	1.3862373
0.0027537688 	0.01159116 	0.01318865 	1.3862373
0.0027738693 	0.012118911 	0.019352153 	1.3905158
0.0027939698 	0.012118911 	0.019352153 	1.3905158
0.0028140704 	0.013500607 	0.026033851 	1.3928834
0.0028341709 	0.013500607 	0.026033851 	1.3928834
0.0028542714 	0.015572805 	0.03328798 	1.3934514
0.0028743719 	0.018122128 	0.041082995 	1.392466
0.0028944724 	0.018122128 	0.041082995 	1.392466
0.0029145729 	0.020894609 	0.049365159 	1.3902587
0.0029346734 	0.020894609 	0.049365159 	1.3902587
0.0029547739 	0.023651115 	0.058105001 	1.3871998
0.0029748744 	0.023651115 	0.058105001 	1.3871998
0.0029949749 	0.026226954 	0.06729649 	1.3836917
0.0030150754 	0.028576534 	0.076954361 	1.3800538
0.0030351759 	0.028576534 	0.076954361 	1.3800538
0.0030552764 	0.030774109 	0.08709325 	1.3764817
0.0030753769 	0.030774109 	0.08709325 	1.3764817
0.0030954774 	0.03301452 	0.097695067 	1.3729637
0.0031155779 	0.035583146 	0.10866184 	1.3691756
0.0031356784 	0.035583146 	0.10866184 	1.3691756
0.0031557789 	0.03879849 	0.11980087 	1.3643963
0.0031758794 	0.03879849 	0.11980087 	1.3643963
0.0031959799 	0.042944277 	0.13082244 	1.3575105
0.0032160804 	0.048188364 	0.14135728 	1.3471573
0.0032361809 	0.048188364 	0.14135728 	1.3471573
0.0032562814 	0.054491122 	0.15096204 	1.3320318
0.0032763819 	0.061532994 	0.15911506 	1.3112777
0.0032964824 	0.061532994 	0.15911506 	1.3112777
0.0033165829 	0.068711501 	0.16522465 	1.2848331
0.0033366834 	0.075225381 	0.16868105 	1.2535741
0.0033567839 	0.075225381 	0.16868105 	1.2535741
0.0033768844 	0.080238001 	0.16896117 	1.2191926
0.0033969849 	0.083054595 	0.16573867 	1.1839021
0.0034170854 	0.083054595 	0.16573867 	1.1839021
0.0034371859 	0.083224051 	0.15894654 	1.1501293
0.0034572864 	0.080547781 	0.14873698 	1.1202792
0.0034773869 	0.07504711 	0.13535726 	1.0964894
0.0034974874 	0.07504711 	0.13535726 	1.0964894
0.0035175879 	0.066968917 	0.11899512 	1.0802979
0.0035376884 	0.056801095 	0.099719834 	1.0722451
0.0035577889 	0.045277772 	0.077641158 	1.0715527
0.0035778894 	0.045277772 	0.077641158 	1.0715527
0.0035979899 	0.033382424 	0.053212449 	1.0761577
0.0036180905 	0.022124215 	0.027443046 	1.082972
0.003638191 	0.012253036 	0.0019143425 	1.088251
0.0036582915 	0.012253036 	0.0019143425 	1.088251
0.003678392 	0.0043800127 	-0.021500365 	1.0881246
0.0036984925 	-0.0011361233 	-0.041158446 	1.0790346
0.003718593 	-0.004441158 	-0.056075036 	1.0580621
0.0037386935 	-0.0060348935 	-0.066138391 	1.0229827
0.003758794 	-0.0064912315 	-0.071865838 	0.97208636
0.0037788945 	-0.0064912315 	-0.071865838 	0.97208636
0.003798995 	-0.0062194788 	-0.073810296 	0.90436778
0.0038190955 	-0.005412928 	-0.072108048 	0.82055437
0.003839196 	-0.0042182276 	-0.066772362 	0.7241355
0.0038592965 	-0.0028900973 	-0.058487869 	0.62077419
0.003879397 	-0.0017255448 	-0.048802379 	0.51608622
0.0038994975 	-0.00091133258 	-0.039358947 	0.41375419
0.003919598 	-0.0004517776 	-0.031013904 	0.31528945
0.0039396985 	-0.00022966631 	-0.023562501 	0.22088747
0.003959799 	-0.00012463816 	-0.015948517 	0.13025214
0.0039798995 	-2.1350179e-05 	-0.0065496536 	0.042884323
0.004 	-2.1350179e-05 	-0.0065496536 	0.042884323
