0 	0.0081806012 	-0.01788265 	1.3356357
2.0100503e-05 	-0.025960967 	-0.0070450795 	1.3330231
4.0201005e-05 	-0.025960967 	-0.0070450795 	1.3330231
6.0301508e-05 	-0.030707112 	0.010620453 	1.3321104
8.040201e-05 	-0.030707112 	0.010620453 	1.3321104
0.00010050251 	-0.030707112 	0.010620453 	1.3321104
0.00012060302 	-0.029937818 	0.019380393 	1.3324908
0.00014070352 	-0.029937818 	0.019380393 	1.3324908
0.00016080402 	-0.029937818 	0.019380393 	1.3324908
0.00018090452 	-0.026964044 	0.0239843 	1.3331401
0.00020100503 	-0.026964044 	0.0239843 	1.3331401
0.00022110553 	-0.026964044 	0.0239843 	1.3331401
0.00024120603 	-0.02267123 	0.024936688 	1.3332676
0.00026130653 	-0.02267123 	0.024936688 	1.3332676
0.00028140704 	-0.017631885 	0.022757437 	1.3325516
0.00030150754 	-0.017631885 	0.022757437 	1.3325516
0.00032160804 	-0.017631885 	0.022757437 	1.3325516
0.00034170854 	-0.012134306 	0.01829121 	1.3309446
0.00036180905 	-0.012134306 	0.01829121 	1.3309446
0.00038190955 	-0.012134306 	0.01829121 	1.3309446
0.00040201005 	-0.0063308077 	0.012524138 	1.328542
0.00042211055 	-0.0063308077 	0.012524138 	1.328542
0.00044221106 	-0.0063308077 	0.012524138 	1.328542
0.00046231156 	-0.00034749561 	0.0063902338 	1.3255856
0.00048241206 	-0.00034749561 	0.0063902338 	1.3255856
0.00050251256 	0.0056429765 	0.00059791435 	1.3224644
0.00052261307 	0.0056429765 	0.00059791435 	1.3224644
0.00054271357 	0.0056429765 	0.00059791435 	1.3224644
0.00056281407 	0.011385861 	-0.0045100956 	1.3196408
0.00058291457 	0.011385861 	-0.0045100956 	1.3196408
0.00060301508 	0.011385861 	-0.0045100956 	1.3196408
0.00062311558 	0.01657815 	-0.0089513615 	1.3175055
0.00064321608 	0.01657815 	-0.0089513615 	1.3175055
0.00066331658 	0.01657815 	-0.0089513615 	1.3175055
0.00068341709 	0.020992513 	-0.012956509 	1.3162053
0.00070351759 	0.020992513 	-0.012956509 	1.3162053
0.00072361809 	0.024593066 	-0.016790891 	1.3155946
0.00074371859 	0.024593066 	-0.016790891 	1.3155946
0.0007638191 	0.024593066 	-0.016790891 	1.3155946
0.0007839196 	0.027602727 	-0.020644614 	1.3153355
0.0008040201 	0.027602727 	-0.020644614 	1.3153355
0.0008241206 	0.027602727 	-0.020644614 	1.3153355
0.00084422111 	0.030397632 	-0.02450422 	1.3151718
0.00086432161 	0.030397632 	-0.02450422 	1.3151718
0.00088442211 	0.030397632 	-0.02450422 	1.3151718
0.00090452261 	0.033573795 	-0.028250032 	1.3150166
0.00092462312 	0.033573795 	-0.028250032 	1.3150166
0.00094472362 	0.037515133 	-0.031170831 	1.3157079
0.00096482412 	0.037515133 	-0.031170831 	1.3157079
0.00098492462 	0.037515133 	-0.031170831 	1.3157079
0.0010050251 	0.043103244 	-0.032771417 	1.3186733
0.0010251256 	0.043103244 	-0.032771417 	1.3186733
0.0010452261 	0.043103244 	-0.032771417 	1.3186733
0.0010653266 	0.051088356 	-0.031577743 	1.3257643
0.0010854271 	0.051088356 	-0.031577743 	1.3257643
0.0011055276 	0.051088356 	-0.031577743 	1.3257643
0.0011256281 	0.060817654 	-0.026630974 	1.3376792
0.0011457286 	0.060817654 	-0.026630974 	1.3376792
0.0011658291 	0.060817654 	-0.026630974 	1.3376792
0.0011859296 	0.071066647 	-0.018050414 	1.3536859
0.0012060302 	0.071066647 	-0.018050414 	1.3536859
0.0012261307 	0.071066647 	-0.018050414 	1.3536859
0.0012462312 	0.079647849 	-0.0073649079 	1.3707917
0.0012663317 	0.079647849 	-0.0073649079 	1.3707917
0.0012864322 	0.079647849 	-0.0073649079 	1.3707917
0.0013065327 	0.084343452 	0.0026253451 	1.3849966
0.0013266332 	0.084343452 	0.0026253451 	1.3849966
0.0013467337 	0.084343452 	0.0026253451 	1.3849966
0.0013668342 	0.083928392 	0.009177383 	1.3940594
0.0013869347 	0.083928392 	0.009177383 	1.3940594
0.0014070352 	0.083928392 	0.009177383 	1.3940594
0.0014271357 	0.078462081 	0.010475454 	1.3988426
0.0014472362 	0.078462081 	0.010475454 	1.3988426
0.0014673367 	0.078462081 	0.010475454 	1.3988426
0.0014874372 	0.06842231 	0.0055706994 	1.4021907
0.0015075377 	0.06842231 	0.0055706994 	1.4021907
0.0015276382 	0.054436416 	-0.005877767 	1.4054127
0.0015477387 	0.054436416 	-0.005877767 	1.4054127
0.0015678392 	0.054436416 	-0.005877767 	1.4054127
0.0015879397 	0.038472115 	-0.02066082 	1.4034462
0.0016080402 	0.038472115 	-0.02066082 	1.4034462
0.0016281407 	0.038472115 	-0.02066082 	1.4034462
0.0016482412 	0.024466892 	-0.028277022 	1.3875665
0.0016683417 	0.024466892 	-0.028277022 	1.3875665
0.0016884422 	0.014950277 	-0.020649674 	1.3579342
0.0017085427 	0.014950277 	-0.020649674 	1.3579342
0.0017286432 	0.014950277 	-0.020649674 	1.3579342
0.0017487437 	0.0064775635 	-0.0069119721 	1.324344
0.0017688442 	0.0064775635 	-0.0069119721 	1.324344
0.0017889447 	0.0064775635 	-0.0069119721 	1.324344
0.0018090452 	-0.0055301849 	-0.0046273451 	1.2944067
0.0018291457 	-0.0055301849 	-0.0046273451 	1.2944067
0.0018492462 	-0.021493828 	-0.022997297 	1.2702457
0.0018693467 	-0.021493828 	-0.022997297 	1.2702457
0.0018894472 	-0.021493828 	-0.022997297 	1.2702457
0.0019095477 	-0.039264268 	-0.056286689 	1.246869
0.0019296482 	-0.039264268 	-0.056286689 	1.246869
0.0019497487 	-0.055117229 	-0.091907799 	1.2181956
0.0019698492 	-0.055117229 	-0.091907799 	1.2181956
0.0019899497 	-0.055117229 	-0.091907799 	1.2181956
0.0020100503 	-0.064730563 	-0.11970177 	1.187675
0.0020301508 	-0.064730563 	-0.11970177 	1.187675
0.0020502513 	-0.066557081 	-0.13068227 	1.1617548
0.0020703518 	-0.066557081 	-0.13068227 	1.1617548
0.0020904523 	-0.062631012 	-0.12264902 	1.1433901
0.0021105528 	-0.062631012 	-0.12264902 	1.1433901
0.0021306533 	-0.062631012 	-0.12264902 	1.1433901
0.0021507538 	-0.056415487 	-0.10482221 	1.1328151
0.0021708543 	-0.056415487 	-0.10482221 	1.1328151
0.0021909548 	-0.050816424 	-0.087363028 	1.1256571
0.0022110553 	-0.050816424 	-0.087363028 	1.1256571
0.0022311558 	-0.046694776 	-0.073854979 	1.1174017
0.0022512563 	-0.046694776 	-0.073854979 	1.1174017
0.0022713568 	-0.043464942 	-0.065662928 	1.1062825
0.0022914573 	-0.043464942 	-0.065662928 	1.1062825
0.0023115578 	-0.043464942 	-0.065662928 	1.1062825
0.0023316583 	-0.040217001 	-0.062101516 	1.0930944
0.0023517588 	-0.040217001 	-0.062101516 	1.0930944
0.0023718593 	-0.036522791 	-0.060563564 	1.0805892
0.0023919598 	-0.036522791 	-0.060563564 	1.0805892
0.0024120603 	-0.032523536 	-0.058356636 	1.0717716
0.0024321608 	-0.032523536 	-0.058356636 	1.0717716
0.0024522613 	-0.028598208 	-0.054057789 	1.0684086
0.0024723618 	-0.028598208 	-0.054057789 	1.0684086
0.0024924623 	-0.024951079 	-0.047715805 	1.0707555
0.0025125628 	-0.024951079 	-0.047715805 	1.0707555
0.0025326633 	-0.021471499 	-0.040421876 	1.0778062
0.0025527638 	-0.021471499 	-0.040421876 	1.0778062
0.0025728643 	-0.017861791 	-0.033565486 	1.0877886
0.0025929648 	-0.017861791 	-0.033565486 	1.0877886
0.0026130653 	-0.013716175 	-0.028126754 	1.0987716
0.0026331658 	-0.013716175 	-0.028126754 	1.0987716
0.0026532663 	-0.0086057316 	-0.024399675 	1.1093746
0.0026733668 	-0.0086057316 	-0.024399675 	1.1093746
0.0026934673 	-0.0022774333 	-0.022234148 	1.119127
0.0027135678 	-0.0022774333 	-0.022234148 	1.119127
0.0027336683 	0.0050622427 	-0.021471381 	1.1283432
0.0027537688 	0.0050622427 	-0.021471381 	1.1283432
0.0027738693 	0.013046836 	-0.022110292 	1.1375619
0.0027939698 	0.013046836 	-0.022110292 	1.1375619
0.0028140704 	0.020934744 	-0.023993922 	1.1468399
0.0028341709 	0.020934744 	-0.023993922 	1.1468399
0.0028542714 	0.02803626 	-0.026416808 	1.1556529
0.0028743719 	0.034154177 	-0.028433381 	1.1633298
0.0028944724 	0.034154177 	-0.028433381 	1.1633298
0.0029145729 	0.038927361 	-0.029379366 	1.1694953
0.0029346734 	0.038927361 	-0.029379366 	1.1694953
0.0029547739 	0.041881766 	-0.029082242 	1.1744056
0.0029748744 	0.041881766 	-0.029082242 	1.1744056
0.0029949749 	0.042581114 	-0.027693299 	1.1788324
0.0030150754 	0.040856532 	-0.025483125 	1.1830771
0.0030351759 	0.040856532 	-0.025483125 	1.1830771
0.0030552764 	0.037081164 	-0.022436602 	1.1866471
0.0030753769 	0.037081164 	-0.022436602 	1.1866471
0.0030954774 	0.031930471 	-0.017919152 	1.1888223
0.0031155779 	0.026034554 	-0.010872537 	1.189314
0.0031356784 	0.026034554 	-0.010872537 	1.189314
0.0031557789 	0.019997507 	-0.00063621296 	1.1883919
0.0031758794 	0.019997507 	-0.00063621296 	1.1883919
0.0031959799 	0.014357819 	0.012447793 	1.1864576
0.0032160804 	0.0094787091 	0.027098205 	1.183478
0.0032361809 	0.0094787091 	0.027098205 	1.183478
0.0032562814 	0.0056838422 	0.041793279 	1.179419
0.0032763819 	0.0031891724 	0.055182674 	1.1743425
0.0032964824 	0.0031891724 	0.055182674 	1.1743425
0.0033165829 	0.0020215251 	0.0662008 	1.1683985
0.0033366834 	0.0021323688 	0.0740072 	1.1615759
0.0033567839 	0.0021323688 	0.0740072 	1.1615759
0.0033768844 	0.0034522072 	0.077975744 	1.1534851
0.0033969849 	0.0059477632 	0.077800598 	1.1434519
0.0034170854 	0.0059477632 	0.077800598 	1.1434519
0.0034371859 	0.0095870077 	0.073731037 	1.1309845
0.0034572864 	0.014292487 	0.066706674 	1.1163365
0.0034773869 	0.019921391 	0.058244377 	1.100597
0.0034974874 	0.019921391 	0.058244377 	1.100597
0.0035175879 	0.026267877 	0.049971028 	1.0850957
0.0035376884 	0.033078408 	0.043130634 	1.0706519
0.0035577889 	0.040067364 	0.038317256 	1.0571685
0.0035778894 	0.040067364 	0.038317256 	1.0571685
0.0035979899 	0.046887797 	0.035514864 	1.0437289
0.0036180905 	0.053047886 	0.034454714 	1.0292126
0.003638191 	0.057815272 	0.035136095 	1.013447
0.0036582915 	0.057815272 	0.035136095 	1.013447
0.003678392 	0.06018083 	0.038222907 	0.99874254
0.0036984925 	0.059023032 	0.044797098 	0.99055182
0.003718593 	0.053623375 	0.055074469 	0.99421816
0.0037386935 	0.044388762 	0.066501003 	1.0068517
0.003758794 	0.033281789 	0.073428708 	1.0122458
0.0037788945 	0.033281789 	0.073428708 	1.0122458
0.003798995 	0.023205013 	0.070665649 	0.988953
0.0038190955 	0.016356729 	0.058825032 	0.92715122
0.003839196 	0.012924553 	0.044492 	0.83592582
0.0038592965 	0.011432727 	0.033436139 	0.73269717
0.003879397 	0.010161159 	0.025792388 	0.6284246
0.0038994975 	0.008223226 	0.018896971 	0.5234431
0.003919598 	0.0057089165 	0.012088895 	0.41388637
0.0039396985 	0.0031997866 	0.0066435191 	0.29850973
0.003959799 	0.0012763467 	0.0027182835 	0.17938647
0.0039798995 	0.00021242848 	-0.00016881317 	0.059542742
0.004 	0.00021242848 	-0.00016881317 	0.059542742
