0 	-0.027885189 	-0.014531869 	1.3209428
2.0100503e-05 	-0.027885189 	-0.014531869 	1.3209428
4.0201005e-05 	-0.027885189 	-0.014531869 	1.3209428
6.0301508e-05 	-0.030134647 	-0.0031541584 	1.3271372
8.040201e-05 	-0.030134647 	-0.0031541584 	1.3271372
0.00010050251 	-0.030134647 	-0.0031541584 	1.3271372
0.00012060302 	-0.028926668 	-0.0021625712 	1.3346655
0.00014070352 	-0.028926668 	-0.0021625712 	1.3346655
0.00016080402 	-0.028926668 	-0.0021625712 	1.3346655
0.00018090452 	-0.027477608 	-0.0034036353 	1.3435368
0.00020100503 	-0.027477608 	-0.0034036353 	1.3435368
0.00022110553 	-0.027477608 	-0.0034036353 	1.3435368
0.00024120603 	-0.025845074 	-0.0052742596 	1.3536179
0.00026130653 	-0.025845074 	-0.0052742596 	1.3536179
0.00028140704 	-0.023882769 	-0.0070455403 	1.3643866
0.00030150754 	-0.023882769 	-0.0070455403 	1.3643866
0.00032160804 	-0.023882769 	-0.0070455403 	1.3643866
0.00034170854 	-0.021366872 	-0.0081655047 	1.374804
0.00036180905 	-0.021366872 	-0.0081655047 	1.374804
0.00038190955 	-0.021366872 	-0.0081655047 	1.374804
0.00040201005 	-0.018001506 	-0.0082136624 	1.3834525
0.00042211055 	-0.018001506 	-0.0082136624 	1.3834525
0.00044221106 	-0.018001506 	-0.0082136624 	1.3834525
0.00046231156 	-0.013509669 	-0.0069329123 	1.3891228
0.00048241206 	-0.013509669 	-0.0069329123 	1.3891228
0.00050251256 	-0.0078185044 	-0.0043406258 	1.3916912
0.00052261307 	-0.0078185044 	-0.0043406258 	1.3916912
0.00054271357 	-0.0078185044 	-0.0043406258 	1.3916912
0.00056281407 	-0.001240243 	-0.00061305396 	1.3923587
0.00058291457 	-0.001240243 	-0.00061305396 	1.3923587
0.00060301508 	-0.001240243 	-0.00061305396 	1.3923587
0.00062311558 	0.0057407066 	0.0039682614 	1.3922846
0.00064321608 	0.0057407066 	0.0039682614 	1.3922846
0.00066331658 	0.0057407066 	0.0039682614 	1.3922846
0.00068341709 	0.012797064 	0.009095392 	1.3910453
0.00070351759 	0.012797064 	0.009095392 	1.3910453
0.00072361809 	0.019818528 	0.014315212 	1.3868503
0.00074371859 	0.019818528 	0.014315212 	1.3868503
0.0007638191 	0.019818528 	0.014315212 	1.3868503
0.0007839196 	0.02679449 	0.018820464 	1.3782804
0.0008040201 	0.02679449 	0.018820464 	1.3782804
0.0008241206 	0.02679449 	0.018820464 	1.3782804
0.00084422111 	0.033504403 	0.021429215 	1.3658384
0.00086432161 	0.033504403 	0.021429215 	1.3658384
0.00088442211 	0.033504403 	0.021429215 	1.3658384
0.00090452261 	0.039392466 	0.021221171 	1.3517214
0.00092462312 	0.039392466 	0.021221171 	1.3517214
0.00094472362 	0.043962215 	0.018837889 	1.3380454
0.00096482412 	0.043962215 	0.018837889 	1.3380454
0.00098492462 	0.043962215 	0.018837889 	1.3380454
0.0010050251 	0.051490662 	0.01736131 	1.3301502
0.0010251256 	0.051490662 	0.01736131 	1.3301502
0.0010452261 	0.051490662 	0.01736131 	1.3301502
0.0010653266 	0.05113859 	0.014547785 	1.3209958
0.0010854271 	0.04573771 	0.010657355 	1.3134621
0.0011055276 	0.04573771 	0.010657355 	1.3134621
0.0011256281 	0.04200789 	0.0051103843 	1.3038518
0.0011457286 	0.04200789 	0.0051103843 	1.3038518
0.0011658291 	0.04200789 	0.0051103843 	1.3038518
0.0011859296 	0.035394306 	-0.0019981171 	1.2963411
0.0012060302 	0.035394306 	-0.0019981171 	1.2963411
0.0012261307 	0.035394306 	-0.0019981171 	1.2963411
0.0012462312 	0.026345129 	-0.010141774 	1.2910689
0.0012663317 	0.026345129 	-0.010141774 	1.2910689
0.0012864322 	0.026345129 	-0.010141774 	1.2910689
0.0013065327 	0.015770468 	-0.018104847 	1.2875779
0.0013266332 	0.015770468 	-0.018104847 	1.2875779
0.0013467337 	0.015770468 	-0.018104847 	1.2875779
0.0013668342 	0.0050207773 	-0.025090266 	1.285003
0.0013869347 	0.0050207773 	-0.025090266 	1.285003
0.0014070352 	0.0050207773 	-0.025090266 	1.285003
0.0014271357 	-0.0044074501 	-0.031418713 	1.2826315
0.0014472362 	-0.0044074501 	-0.031418713 	1.2826315
0.0014673367 	-0.0044074501 	-0.031418713 	1.2826315
0.0014874372 	-0.011349139 	-0.0379537 	1.2800325
0.0015075377 	-0.011349139 	-0.0379537 	1.2800325
0.0015276382 	-0.015328423 	-0.044871687 	1.2768253
0.0015477387 	-0.015328423 	-0.044871687 	1.2768253
0.0015678392 	-0.015328423 	-0.044871687 	1.2768253
0.0015879397 	-0.016510417 	-0.05127287 	1.272572
0.0016080402 	-0.016510417 	-0.05127287 	1.272572
0.0016281407 	-0.016510417 	-0.05127287 	1.272572
0.0016482412 	-0.015401783 	-0.055909037 	1.2669877
0.0016683417 	-0.015401783 	-0.055909037 	1.2669877
0.0016884422 	-0.012607846 	-0.057942687 	1.2601987
0.0017085427 	-0.012607846 	-0.057942687 	1.2601987
0.0017286432 	-0.012607846 	-0.057942687 	1.2601987
0.0017487437 	-0.0086600789 	-0.057173347 	1.252744
0.0017688442 	-0.0086600789 	-0.057173347 	1.252744
0.0017889447 	-0.0086600789 	-0.057173347 	1.252744
0.0018090452 	-0.0038548445 	-0.053869822 	1.2453612
0.0018291457 	-0.0038548445 	-0.053869822 	1.2453612
0.0018492462 	0.0016808306 	-0.048469482 	1.2387029
0.0018693467 	0.0016808306 	-0.048469482 	1.2387029
0.0018894472 	0.0016808306 	-0.048469482 	1.2387029
0.0019095477 	0.0079393255 	-0.041447653 	1.2331468
0.0019296482 	0.0079393255 	-0.041447653 	1.2331468
0.0019497487 	0.014948303 	-0.033275334 	1.2287823
0.0019698492 	0.014948303 	-0.033275334 	1.2287823
0.0019899497 	0.022706851 	-0.024443942 	1.2255313
0.0020100503 	0.022706851 	-0.024443942 	1.2255313
0.0020301508 	0.022706851 	-0.024443942 	1.2255313
0.0020502513 	0.03120402 	-0.015471052 	1.2232431
0.0020703518 	0.03120402 	-0.015471052 	1.2232431
0.0020904523 	0.040331888 	-0.0068196492 	1.2217709
0.0021105528 	0.040331888 	-0.0068196492 	1.2217709
0.0021306533 	0.040331888 	-0.0068196492 	1.2217709
0.0021507538 	0.049900636 	0.0010780765 	1.2209031
0.0021708543 	0.049900636 	0.0010780765 	1.2209031
0.0021909548 	0.059671856 	0.0078612874 	1.2204139
0.0022110553 	0.059671856 	0.0078612874 	1.2204139
0.0022311558 	0.069286665 	0.013226372 	1.2200283
0.0022512563 	0.069286665 	0.013226372 	1.2200283
0.0022713568 	0.078340655 	0.016937164 	1.2194787
0.0022914573 	0.078340655 	0.016937164 	1.2194787
0.0023115578 	0.078340655 	0.016937164 	1.2194787
0.0023316583 	0.08636279 	0.018855827 	1.2185623
0.0023517588 	0.08636279 	0.018855827 	1.2185623
0.0023718593 	0.092774167 	0.018915608 	1.2171721
0.0023919598 	0.092774167 	0.018915608 	1.2171721
0.0024120603 	0.09703866 	0.017102804 	1.2152758
0.0024321608 	0.09703866 	0.017102804 	1.2152758
0.0024522613 	0.098647637 	0.013383985 	1.212988
0.0024723618 	0.098647637 	0.013383985 	1.212988
0.0024924623 	0.097136497 	0.0077548865 	1.2105595
0.0025125628 	0.097136497 	0.0077548865 	1.2105595
0.0025326633 	0.092096111 	0.00031077696 	1.2083286
0.0025527638 	0.092096111 	0.00031077696 	1.2083286
0.0025728643 	0.083460367 	-0.0085464321 	1.2067168
0.0025929648 	0.083460367 	-0.0085464321 	1.2067168
0.0026130653 	0.071718395 	-0.017915119 	1.2060687
0.0026331658 	0.071718395 	-0.017915119 	1.2060687
0.0026532663 	0.057618401 	-0.026197893 	1.2058814
0.0026733668 	0.057618401 	-0.026197893 	1.2058814
0.0026934673 	0.04231911 	-0.031082516 	1.2042897
0.0027135678 	0.04231911 	-0.031082516 	1.2042897
0.0027336683 	0.027504688 	-0.03063153 	1.1995528
0.0027537688 	0.027504688 	-0.03063153 	1.1995528
0.0027738693 	0.014896238 	-0.024616637 	1.192264
0.0027939698 	0.014896238 	-0.024616637 	1.192264
0.0028140704 	0.0055131407 	-0.014509577 	1.1846005
0.0028341709 	0.0055131407 	-0.014509577 	1.1846005
0.0028542714 	-0.00073115296 	-0.0028483325 	1.1772377
0.0028743719 	-0.0049453482 	0.0072251283 	1.1685669
0.0028944724 	-0.0049453482 	0.0072251283 	1.1685669
0.0029145729 	-0.0085641755 	0.013339616 	1.1572123
0.0029346734 	-0.0085641755 	0.013339616 	1.1572123
0.0029547739 	-0.01226197 	0.015226734 	1.143945
0.0029748744 	-0.01226197 	0.015226734 	1.143945
0.0029949749 	-0.015672823 	0.014234195 	1.1304998
0.0030150754 	-0.017869272 	0.011301968 	1.1178501
0.0030351759 	-0.017869272 	0.011301968 	1.1178501
0.0030552764 	-0.018036427 	0.0058114464 	1.1060835
0.0030753769 	-0.018036427 	0.0058114464 	1.1060835
0.0030954774 	-0.016181582 	-0.0036207121 	1.0955866
0.0031155779 	-0.013205055 	-0.017374215 	1.0878632
0.0031356784 	-0.013205055 	-0.017374215 	1.0878632
0.0031557789 	-0.010257925 	-0.033812394 	1.0847001
0.0031758794 	-0.010257925 	-0.033812394 	1.0847001
0.0031959799 	-0.0084718391 	-0.050218717 	1.0868411
0.0032160804 	-0.0084986671 	-0.06449168 	1.0928559
0.0032361809 	-0.0084986671 	-0.06449168 	1.0928559
0.0032562814 	-0.0099188289 	-0.075816593 	1.1003099
0.0032763819 	-0.011977838 	-0.084060873 	1.1077058
0.0032964824 	-0.011977838 	-0.084060873 	1.1077058
0.0033165829 	-0.013723595 	-0.088657868 	1.1147286
0.0033366834 	-0.01452374 	-0.088102109 	1.120841
0.0033567839 	-0.01452374 	-0.088102109 	1.120841
0.0033768844 	-0.013897413 	-0.080167897 	1.1239963
0.0033969849 	-0.011444545 	-0.062807018 	1.1209097
0.0034170854 	-0.011444545 	-0.062807018 	1.1209097
0.0034371859 	-0.0069235042 	-0.035438325 	1.1078575
0.0034572864 	0.00026615756 	4.2493055e-05 	1.0814745
0.0034773869 	0.010089531 	0.039913432 	1.0392486
0.0034974874 	0.010089531 	0.039913432 	1.0392486
0.0035175879 	0.020859298 	0.080069193 	0.98114903
0.0035376884 	0.029484309 	0.11641868 	0.9123063
0.0035577889 	0.032887311 	0.14339382 	0.84338848
0.0035778894 	0.032887311 	0.14339382 	0.84338848
0.0035979899 	0.029988372 	0.15423242 	0.78525507
0.0036180905 	0.022482294 	0.14586388 	0.74181405
0.003638191 	0.013473708 	0.12278688 	0.70864932
0.0036582915 	0.013473708 	0.12278688 	0.70864932
0.003678392 	0.0055684424 	0.094150782 	0.67809267
0.0036984925 	-1.6291655e-05 	0.067770305 	0.64465726
0.003718593 	-0.0032465006 	0.047210034 	0.60660294
0.0037386935 	-0.0046525426 	0.032588528 	0.56463603
0.003758794 	-0.0048983231 	0.022439651 	0.52008558
0.0037788945 	-0.0048983231 	0.022439651 	0.52008558
0.003798995 	-0.0045629014 	0.015045471 	0.4739254
0.0038190955 	-0.0040754381 	0.0091199433 	0.42660824
0.003839196 	-0.0036461876 	0.0040231165 	0.37821388
0.0038592965 	-0.0032717289 	-0.00028374364 	0.32872635
0.003879397 	-0.002897275 	-0.0034146903 	0.27817224
0.0038994975 	-0.0024686079 	-0.0048521991 	0.22676248
0.003919598 	-0.0019321191 	-0.004247434 	0.17498997
0.0039396985 	-0.0013040102 	-0.0017764884 	0.12354847
0.003959799 	-0.00064063324 	0.0013678763 	0.073070231
0.0039798995 	-9.9386906e-05 	0.0024883797 	0.023878886
0.004 	-9.9386906e-05 	0.0024883797 	0.023878886
