0 	0.010991849 	0.019457076 	1.4034365
2.0100503e-05 	-0.015904779 	0.0072101643 	1.403432
4.0201005e-05 	-0.015904779 	0.0072101643 	1.403432
6.0301508e-05 	-0.012709197 	-0.0018179843 	1.4023788
8.040201e-05 	-0.012709197 	-0.0018179843 	1.4023788
0.00010050251 	-0.012709197 	-0.0018179843 	1.4023788
0.00012060302 	-0.0077684242 	-0.0030104 	1.400086
0.00014070352 	-0.0077684242 	-0.0030104 	1.400086
0.00016080402 	-0.0077684242 	-0.0030104 	1.400086
0.00018090452 	-0.0032660902 	-0.0017822947 	1.396737
0.00020100503 	-0.0032660902 	-0.0017822947 	1.396737
0.00022110553 	-0.0032660902 	-0.0017822947 	1.396737
0.00024120603 	0.00092739387 	0.00081566152 	1.3929638
0.00026130653 	0.00092739387 	0.00081566152 	1.3929638
0.00028140704 	0.0049955902 	0.0041903775 	1.3895548
0.00030150754 	0.0049955902 	0.0041903775 	1.3895548
0.00032160804 	0.0049955902 	0.0041903775 	1.3895548
0.00034170854 	0.0090807662 	0.0077857953 	1.3871315
0.00036180905 	0.0090807662 	0.0077857953 	1.3871315
0.00038190955 	0.0090807662 	0.0077857953 	1.3871315
0.00040201005 	0.013253181 	0.011162972 	1.3860256
0.00042211055 	0.013253181 	0.011162972 	1.3860256
0.00044221106 	0.013253181 	0.011162972 	1.3860256
0.00046231156 	0.017505244 	0.01406919 	1.3862166
0.00048241206 	0.017505244 	0.01406919 	1.3862166
0.00050251256 	0.021770092 	0.016492085 	1.3873657
0.00052261307 	0.021770092 	0.016492085 	1.3873657
0.00054271357 	0.021770092 	0.016492085 	1.3873657
0.00056281407 	0.025956723 	0.018599473 	1.3889361
0.00058291457 	0.025956723 	0.018599473 	1.3889361
0.00060301508 	0.025956723 	0.018599473 	1.3889361
0.00062311558 	0.029983841 	0.02055109 	1.3903664
0.00064321608 	0.029983841 	0.02055109 	1.3903664
0.00066331658 	0.029983841 	0.02055109 	1.3903664
0.00068341709 	0.033783482 	0.022326353 	1.391224
0.00070351759 	0.033783482 	0.022326353 	1.391224
0.00072361809 	0.037291755 	0.023676737 	1.3912216
0.00074371859 	0.037291755 	0.023676737 	1.3912216
0.0007638191 	0.037291755 	0.023676737 	1.3912216
0.0007839196 	0.040462731 	0.024289536 	1.3900773
0.0008040201 	0.040462731 	0.024289536 	1.3900773
0.0008241206 	0.040462731 	0.024289536 	1.3900773
0.00084422111 	0.043309797 	0.023905287 	1.3873777
0.00086432161 	0.043309797 	0.023905287 	1.3873777
0.00088442211 	0.043309797 	0.023905287 	1.3873777
0.00090452261 	0.045929088 	0.022478881 	1.3825585
0.00092462312 	0.045929088 	0.022478881 	1.3825585
0.00094472362 	0.048400288 	0.02001009 	1.375252
0.00096482412 	0.048400288 	0.02001009 	1.375252
0.00098492462 	0.045492566 	0.020259582 	1.3722273
0.0010050251 	0.048170838 	0.016484342 	1.3634698
0.0010251256 	0.048170838 	0.016484342 	1.3634698
0.0010452261 	0.048170838 	0.016484342 	1.3634698
0.0010653266 	0.050730759 	0.01123634 	1.3527593
0.0010854271 	0.050730759 	0.01123634 	1.3527593
0.0011055276 	0.050730759 	0.01123634 	1.3527593
0.0011256281 	0.053151155 	0.0047551735 	1.3422813
0.0011457286 	0.053151155 	0.0047551735 	1.3422813
0.0011658291 	0.054719363 	0.0029644778 	1.3388218
0.0011859296 	0.056414754 	-0.0059762422 	1.3283859
0.0012060302 	0.055760311 	-0.0021140761 	1.333724
0.0012261307 	0.055760311 	-0.0021140761 	1.333724
0.0012462312 	0.058192081 	-0.0077394554 	1.3283925
0.0012663317 	0.058192081 	-0.0077394554 	1.3283925
0.0012864322 	0.058192081 	-0.0077394554 	1.3283925
0.0013065327 	0.059061843 	-0.011039268 	1.3273419
0.0013266332 	0.059061843 	-0.011039268 	1.3273419
0.0013467337 	0.059061843 	-0.011039268 	1.3273419
0.0013668342 	0.056640991 	-0.012087803 	1.3312961
0.0013869347 	0.056640991 	-0.012087803 	1.3312961
0.0014070352 	0.056640991 	-0.012087803 	1.3312961
0.0014271357 	0.050121085 	-0.011173532 	1.3397948
0.0014472362 	0.050121085 	-0.011173532 	1.3397948
0.0014673367 	0.050121085 	-0.011173532 	1.3397948
0.0014874372 	0.040159947 	-0.0078262895 	1.3502653
0.0015075377 	0.040159947 	-0.0078262895 	1.3502653
0.0015276382 	0.028368049 	-0.00097428716 	1.3583211
0.0015477387 	0.028368049 	-0.00097428716 	1.3583211
0.0015678392 	0.028368049 	-0.00097428716 	1.3583211
0.0015879397 	0.016282263 	0.0099516673 	1.3595061
0.0016080402 	0.016282263 	0.0099516673 	1.3595061
0.0016281407 	0.016282263 	0.0099516673 	1.3595061
0.0016482412 	0.0048645636 	0.023633894 	1.3515401
0.0016683417 	0.0048645636 	0.023633894 	1.3515401
0.0016884422 	-0.0054962546 	0.036341041 	1.335861
0.0017085427 	-0.0054962546 	0.036341041 	1.335861
0.0017286432 	-0.0054962546 	0.036341041 	1.335861
0.0017487437 	-0.014619378 	0.043199671 	1.3170629
0.0017688442 	-0.014619378 	0.043199671 	1.3170629
0.0017889447 	-0.014619378 	0.043199671 	1.3170629
0.0018090452 	-0.02218099 	0.040964992 	1.3004304
0.0018291457 	-0.02218099 	0.040964992 	1.3004304
0.0018492462 	-0.028038285 	0.029898768 	1.2889299
0.0018693467 	-0.028038285 	0.029898768 	1.2889299
0.0018894472 	-0.028038285 	0.029898768 	1.2889299
0.0019095477 	-0.032302292 	0.013043933 	1.2818873
0.0019296482 	-0.032302292 	0.013043933 	1.2818873
0.0019497487 	-0.034748352 	-0.005865536 	1.2763399
0.0019698492 	-0.034748352 	-0.005865536 	1.2763399
0.0019899497 	-0.0351298 	-0.02340449 	1.2696202
0.0020100503 	-0.0351298 	-0.02340449 	1.2696202
0.0020301508 	-0.0351298 	-0.02340449 	1.2696202
0.0020502513 	-0.033514399 	-0.036901466 	1.2610041
0.0020703518 	-0.033514399 	-0.036901466 	1.2610041
0.0020904523 	-0.030142479 	-0.044275459 	1.251946
0.0021105528 	-0.030142479 	-0.044275459 	1.251946
0.0021306533 	-0.030142479 	-0.044275459 	1.251946
0.0021507538 	-0.025626127 	-0.044751708 	1.2449843
0.0021708543 	-0.025626127 	-0.044751708 	1.2449843
0.0021909548 	-0.020806421 	-0.039700429 	1.2418244
0.0022110553 	-0.020806421 	-0.039700429 	1.2418244
0.0022311558 	-0.016560914 	-0.03185616 	1.2421996
0.0022512563 	-0.016560914 	-0.03185616 	1.2421996
0.0022713568 	-0.013434815 	-0.023401955 	1.2447749
0.0022914573 	-0.013434815 	-0.023401955 	1.2447749
0.0023115578 	-0.013434815 	-0.023401955 	1.2447749
0.0023316583 	-0.011528429 	-0.015025397 	1.2484689
0.0023517588 	-0.011528429 	-0.015025397 	1.2484689
0.0023718593 	-0.010662969 	-0.0064027402 	1.2526553
0.0023919598 	-0.010662969 	-0.0064027402 	1.2526553
0.0024120603 	-0.010481588 	0.0029488486 	1.2564586
0.0024321608 	-0.010481588 	0.0029488486 	1.2564586
0.0024522613 	-0.010747724 	0.013243811 	1.2584404
0.0024723618 	-0.010747724 	0.013243811 	1.2584404
0.0024924623 	-0.01129003 	0.024140841 	1.2569281
0.0025125628 	-0.01129003 	0.024140841 	1.2569281
0.0025326633 	-0.011952495 	0.034875836 	1.2510099
0.0025527638 	-0.011952495 	0.034875836 	1.2510099
0.0025728643 	-0.012725165 	0.044329053 	1.2411855
0.0025929648 	-0.012725165 	0.044329053 	1.2411855
0.0026130653 	-0.013931301 	0.051128579 	1.2296361
0.0026331658 	-0.013931301 	0.051128579 	1.2296361
0.0026532663 	-0.016139256 	0.053796863 	1.2197117
0.0026733668 	-0.016139256 	0.053796863 	1.2197117
0.0026934673 	-0.01988842 	0.051170574 	1.2147781
0.0027135678 	-0.01988842 	0.051170574 	1.2147781
0.0027336683 	-0.025312916 	0.043014449 	1.2167083
0.0027537688 	-0.025312916 	0.043014449 	1.2167083
0.0027738693 	-0.031908204 	0.030565303 	1.2247434
0.0027939698 	-0.031908204 	0.030565303 	1.2247434
0.0028140704 	-0.038712788 	0.016392898 	1.2355864
0.0028341709 	-0.038712788 	0.016392898 	1.2355864
0.0028542714 	-0.04462315 	0.0034506373 	1.2446761
0.0028743719 	-0.048616469 	-0.0059646485 	1.2478851
0.0028944724 	-0.048616469 	-0.0059646485 	1.2478851
0.0029145729 	-0.05016167 	-0.010777286 	1.2428276
0.0029346734 	-0.05016167 	-0.010777286 	1.2428276
0.0029547739 	-0.049380789 	-0.011180883 	1.2294286
0.0029748744 	-0.049380789 	-0.011180883 	1.2294286
0.0029949749 	-0.047046211 	-0.0082299903 	1.2099337
0.0030150754 	-0.044529511 	-0.0033744427 	1.1881719
0.0030351759 	-0.044529511 	-0.0033744427 	1.1881719
0.0030552764 	-0.043225742 	0.0018852068 	1.1680627
0.0030753769 	-0.043225742 	0.0018852068 	1.1680627
0.0030954774 	-0.043878546 	0.0061969451 	1.1518472
0.0031155779 	-0.046221374 	0.0083222439 	1.1389556
0.0031356784 	-0.046221374 	0.0083222439 	1.1389556
0.0031557789 	-0.049218015 	0.007107776 	1.1265517
0.0031758794 	-0.049218015 	0.007107776 	1.1265517
0.0031959799 	-0.05172527 	0.0016433912 	1.1115367
0.0032160804 	-0.052983953 	-0.0083909875 	1.0926396
0.0032361809 	-0.052983953 	-0.0083909875 	1.0926396
0.0032562814 	-0.052649347 	-0.022729793 	1.0708846
0.0032763819 	-0.050814656 	-0.0406125 	1.0482331
0.0032964824 	-0.050814656 	-0.0406125 	1.0482331
0.0033165829 	-0.047808695 	-0.060851355 	1.0259181
0.0033366834 	-0.043979224 	-0.081871329 	1.0039756
0.0033567839 	-0.043979224 	-0.081871329 	1.0039756
0.0033768844 	-0.039799556 	-0.10183113 	0.9823799
0.0033969849 	-0.035994041 	-0.11891046 	0.96231277
0.0034170854 	-0.035994041 	-0.11891046 	0.96231277
0.0034371859 	-0.033475118 	-0.13180738 	0.94581363
0.0034572864 	-0.03282275 	-0.14025465 	0.9332596
0.0034773869 	-0.033808423 	-0.14513289 	0.92044793
0.0034974874 	-0.033808423 	-0.14513289 	0.92044793
0.0035175879 	-0.035431869 	-0.14782245 	0.89837534
0.0035376884 	-0.036436484 	-0.14873466 	0.85722304
0.0035577889 	-0.036176637 	-0.14548681 	0.79304473
0.0035778894 	-0.036176637 	-0.14548681 	0.79304473
0.0035979899 	-0.035128539 	-0.13282892 	0.71245278
0.0036180905 	-0.034523343 	-0.10736354 	0.62986101
0.003638191 	-0.035421151 	-0.073863719 	0.55875076
0.0036582915 	-0.035421151 	-0.073863719 	0.55875076
0.003678392 	-0.038144951 	-0.043161713 	0.50624752
0.0036984925 	-0.042279794 	-0.022456269 	0.47318319
0.003718593 	-0.046862558 	-0.011036378 	0.45498018
0.0037386935 	-0.050732997 	-0.0043114456 	0.44402856
0.003758794 	-0.052876226 	0.0014336935 	0.43369026
0.0037788945 	-0.052876226 	0.0014336935 	0.43369026
0.003798995 	-0.052627386 	0.0074544267 	0.41989754
0.0038190955 	-0.049871887 	0.013212183 	0.39997212
0.003839196 	-0.044951253 	0.017504838 	0.37233351
0.0038592965 	-0.03847324 	0.019497428 	0.3364114
0.003879397 	-0.031080586 	0.018912876 	0.2928045
0.0038994975 	-0.023387265 	0.01590185 	0.24312788
0.003919598 	-0.015951929 	0.010887806 	0.18965932
0.0039396985 	-0.0092930299 	0.0045711693 	0.13488298
0.003959799 	-0.0039562603 	-0.0016678068 	0.080844174
0.0039798995 	-0.00053939667 	-0.0044275738 	0.027976888
0.004 	-0.00053939667 	-0.0044275738 	0.027976888
