0 	-0.061639135 	-0.025850859 	1.3831777
2.0100503e-05 	0.014357715 	-0.063161762 	1.3876232
4.0201005e-05 	0.014357715 	-0.063161762 	1.3876232
6.0301508e-05 	0.030583178 	-0.057052921 	1.3899046
8.040201e-05 	0.030583178 	-0.057052921 	1.3899046
0.00010050251 	0.030583178 	-0.057052921 	1.3899046
0.00012060302 	0.028553632 	-0.059827357 	1.3899391
0.00014070352 	0.028553632 	-0.059827357 	1.3899391
0.00016080402 	0.028553632 	-0.059827357 	1.3899391
0.00018090452 	0.025309555 	-0.062061154 	1.3879858
0.00020100503 	0.025309555 	-0.062061154 	1.3879858
0.00022110553 	0.025309555 	-0.062061154 	1.3879858
0.00024120603 	0.023201695 	-0.060588144 	1.385227
0.00026130653 	0.023201695 	-0.060588144 	1.385227
0.00028140704 	0.022202287 	-0.05560536 	1.3832655
0.00030150754 	0.022202287 	-0.05560536 	1.3832655
0.00032160804 	0.022202287 	-0.05560536 	1.3832655
0.00034170854 	0.021549527 	-0.048836067 	1.3825338
0.00036180905 	0.021549527 	-0.048836067 	1.3825338
0.00038190955 	0.021549527 	-0.048836067 	1.3825338
0.00040201005 	0.020482679 	-0.041833203 	1.381981
0.00042211055 	0.020482679 	-0.041833203 	1.381981
0.00044221106 	0.020482679 	-0.041833203 	1.381981
0.00046231156 	0.018566271 	-0.03518384 	1.3802691
0.00048241206 	0.018566271 	-0.03518384 	1.3802691
0.00050251256 	0.015759906 	-0.028754385 	1.376467
0.00052261307 	0.015759906 	-0.028754385 	1.376467
0.00054271357 	0.015759906 	-0.028754385 	1.376467
0.00056281407 	0.012368537 	-0.022517332 	1.369614
0.00058291457 	0.012368537 	-0.022517332 	1.369614
0.00060301508 	0.012368537 	-0.022517332 	1.369614
0.00062311558 	0.0087016872 	-0.017498725 	1.3584933
0.00064321608 	0.0087016872 	-0.017498725 	1.3584933
0.00066331658 	0.0087016872 	-0.017498725 	1.3584933
0.00068341709 	0.0046085424 	-0.015729575 	1.3426053
0.00070351759 	0.0046085424 	-0.015729575 	1.3426053
0.00072361809 	-0.00036585882 	-0.018200929 	1.3234286
0.00074371859 	-0.00036585882 	-0.018200929 	1.3234286
0.0007638191 	-0.00036585882 	-0.018200929 	1.3234286
0.0007839196 	-0.0062742736 	-0.023317528 	1.304081
0.0008040201 	-0.0062742736 	-0.023317528 	1.304081
0.0008241206 	-0.0062742736 	-0.023317528 	1.304081
0.00084422111 	-0.01250217 	-0.028047299 	1.2872067
0.00086432161 	-0.01250217 	-0.028047299 	1.2872067
0.00088442211 	-0.01250217 	-0.028047299 	1.2872067
0.00090452261 	-0.018096497 	-0.029957477 	1.2734691
0.00092462312 	-0.018096497 	-0.029957477 	1.2734691
0.00094472362 	-0.022131892 	-0.027956874 	1.2620402
0.00096482412 	-0.022131892 	-0.027956874 	1.2620402
0.00098492462 	-0.022131892 	-0.027956874 	1.2620402
0.0010050251 	-0.031046689 	-0.016484543 	1.2401837
0.0010251256 	-0.031046689 	-0.016484543 	1.2401837
0.0010452261 	-0.031046689 	-0.016484543 	1.2401837
0.0010653266 	-0.028066785 	-0.0045920524 	1.2362186
0.0010854271 	-0.028066785 	-0.0045920524 	1.2362186
0.0011055276 	-0.028066785 	-0.0045920524 	1.2362186
0.0011256281 	-0.02384799 	0.0021369767 	1.2378917
0.0011457286 	-0.02384799 	0.0021369767 	1.2378917
0.0011658291 	-0.015252168 	-0.0078257981 	1.2403697
0.0011859296 	-0.010303279 	-0.0088305491 	1.2411911
0.0012060302 	-0.020324146 	-0.00057301815 	1.2408811
0.0012261307 	-0.020324146 	-0.00057301815 	1.2408811
0.0012462312 	-0.017530205 	-0.01179348 	1.2434657
0.0012663317 	-0.017530205 	-0.01179348 	1.2434657
0.0012864322 	-0.017530205 	-0.01179348 	1.2434657
0.0013065327 	-0.01491136 	-0.028092341 	1.247119
0.0013266332 	-0.0059430464 	-0.031974274 	1.2541704
0.0013467337 	-0.0059430464 	-0.031974274 	1.2541704
0.0013668342 	-0.011676234 	-0.045471895 	1.2517352
0.0013869347 	-0.011676234 	-0.045471895 	1.2517352
0.0014070352 	-0.011676234 	-0.045471895 	1.2517352
0.0014271357 	-0.0068238093 	-0.060759125 	1.2553943
0.0014472362 	-0.0068238093 	-0.060759125 	1.2553943
0.0014673367 	-0.0068238093 	-0.060759125 	1.2553943
0.0014874372 	-0.00021346662 	-0.072140113 	1.2569686
0.0015075377 	-0.00021346662 	-0.072140113 	1.2569686
0.0015276382 	0.0072430696 	-0.079204376 	1.2565138
0.0015477387 	0.0072430696 	-0.079204376 	1.2565138
0.0015678392 	0.0072430696 	-0.079204376 	1.2565138
0.0015879397 	0.014352492 	-0.082294484 	1.2544776
0.0016080402 	0.014352492 	-0.082294484 	1.2544776
0.0016281407 	0.014352492 	-0.082294484 	1.2544776
0.0016482412 	0.020349875 	-0.081929538 	1.2514004
0.0016683417 	0.020349875 	-0.081929538 	1.2514004
0.0016884422 	0.02504499 	-0.078590487 	1.2478615
0.0017085427 	0.02504499 	-0.078590487 	1.2478615
0.0017286432 	0.02504499 	-0.078590487 	1.2478615
0.0017487437 	0.02858179 	-0.072570701 	1.2444291
0.0017688442 	0.02858179 	-0.072570701 	1.2444291
0.0017889447 	0.02858179 	-0.072570701 	1.2444291
0.0018090452 	0.031104834 	-0.064057807 	1.2416916
0.0018291457 	0.031104834 	-0.064057807 	1.2416916
0.0018492462 	0.03262387 	-0.05328133 	1.240466
0.0018693467 	0.03262387 	-0.05328133 	1.240466
0.0018894472 	0.03262387 	-0.05328133 	1.240466
0.0019095477 	0.033016931 	-0.040705577 	1.2417825
0.0019296482 	0.033016931 	-0.040705577 	1.2417825
0.0019497487 	0.032100853 	-0.026974175 	1.2465095
0.0019698492 	0.032100853 	-0.026974175 	1.2465095
0.0019899497 	0.029768661 	-0.012843636 	1.2547604
0.0020100503 	0.029768661 	-0.012843636 	1.2547604
0.0020301508 	0.029768661 	-0.012843636 	1.2547604
0.0020502513 	0.026013952 	0.00095696294 	1.2653881
0.0020703518 	0.026013952 	0.00095696294 	1.2653881
0.0020904523 	0.020948825 	0.013731227 	1.275786
0.0021105528 	0.020948825 	0.013731227 	1.275786
0.0021306533 	0.020948825 	0.013731227 	1.275786
0.0021507538 	0.014734307 	0.025060846 	1.2826467
0.0021708543 	0.014734307 	0.025060846 	1.2826467
0.0021909548 	0.0076080547 	0.034788249 	1.2836116
0.0022110553 	0.0076080547 	0.034788249 	1.2836116
0.0022311558 	-9.9876748e-05 	0.042817958 	1.2789719
0.0022512563 	-9.9876748e-05 	0.042817958 	1.2789719
0.0022713568 	-0.0079712631 	0.048711863 	1.2714099
0.0022914573 	-0.0079712631 	0.048711863 	1.2714099
0.0023115578 	-0.0079712631 	0.048711863 	1.2714099
0.0023316583 	-0.015510731 	0.051747584 	1.2637602
0.0023517588 	-0.015510731 	0.051747584 	1.2637602
0.0023718593 	-0.022039205 	0.051537665 	1.2570079
0.0023919598 	-0.022039205 	0.051537665 	1.2570079
0.0024120603 	-0.026921986 	0.048503655 	1.2504021
0.0024321608 	-0.026921986 	0.048503655 	1.2504021
0.0024522613 	-0.029786317 	0.043649955 	1.2426825
0.0024723618 	-0.029786317 	0.043649955 	1.2426825
0.0024924623 	-0.030509635 	0.03814164 	1.2329814
0.0025125628 	-0.030509635 	0.03814164 	1.2329814
0.0025326633 	-0.029222116 	0.033008326 	1.2210783
0.0025527638 	-0.029222116 	0.033008326 	1.2210783
0.0025728643 	-0.026282742 	0.029036985 	1.2072924
0.0025929648 	-0.026282742 	0.029036985 	1.2072924
0.0026130653 	-0.022203858 	0.026779684 	1.1923472
0.0026331658 	-0.022203858 	0.026779684 	1.1923472
0.0026532663 	-0.017627217 	0.02646552 	1.1771609
0.0026733668 	-0.017627217 	0.02646552 	1.1771609
0.0026934673 	-0.013221243 	0.027968006 	1.1626377
0.0027135678 	-0.013221243 	0.027968006 	1.1626377
0.0027336683 	-0.0095787153 	0.030814938 	1.1494762
0.0027537688 	-0.0095787153 	0.030814938 	1.1494762
0.0027738693 	-0.0071248217 	0.034362187 	1.1381438
0.0027939698 	-0.0071248217 	0.034362187 	1.1381438
0.0028140704 	-0.0060258739 	0.038014271 	1.1287786
0.0028341709 	-0.0060258739 	0.038014271 	1.1287786
0.0028542714 	-0.006136065 	0.041451273 	1.121128
0.0028743719 	-0.0069895979 	0.044743494 	1.1145274
0.0028944724 	-0.0069895979 	0.044743494 	1.1145274
0.0029145729 	-0.0078280554 	0.048237329 	1.1079083
0.0029346734 	-0.0078280554 	0.048237329 	1.1079083
0.0029547739 	-0.0077033734 	0.052325599 	1.099923
0.0029748744 	-0.0077033734 	0.052325599 	1.099923
0.0029949749 	-0.0056811947 	0.057133923 	1.0893607
0.0030150754 	-0.0013005497 	0.062205342 	1.0759827
0.0030351759 	-0.0013005497 	0.062205342 	1.0759827
0.0030552764 	0.0050483561 	0.066528424 	1.0613023
0.0030753769 	0.0050483561 	0.066528424 	1.0613023
0.0030954774 	0.012196812 	0.069226379 	1.048181
0.0031155779 	0.018628012 	0.070456506 	1.0388675
0.0031356784 	0.018628012 	0.070456506 	1.0388675
0.0031557789 	0.023205238 	0.071730205 	1.0329625
0.0031758794 	0.023205238 	0.071730205 	1.0329625
0.0031959799 	0.025760175 	0.074785972 	1.0271909
0.0032160804 	0.026979775 	0.079930697 	1.0176498
0.0032361809 	0.026979775 	0.079930697 	1.0176498
0.0032562814 	0.027661251 	0.085492689 	1.0028943
0.0032763819 	0.028090524 	0.088580132 	0.98504563
0.0032964824 	0.028090524 	0.088580132 	0.98504563
0.0033165829 	0.028049982 	0.086337827 	0.96773666
0.0033366834 	0.027317543 	0.077313888 	0.952947
0.0033567839 	0.027317543 	0.077313888 	0.952947
0.0033768844 	0.026084289 	0.062586964 	0.9391609
0.0033969849 	0.024867248 	0.046017638 	0.92188683
0.0034170854 	0.024867248 	0.046017638 	0.92188683
0.0034371859 	0.024083389 	0.032732456 	0.89663311
0.0034572864 	0.023443085 	0.025879325 	0.86303138
0.0034773869 	0.021563315 	0.023612789 	0.82786305
0.0034974874 	0.021563315 	0.023612789 	0.82786305
0.0035175879 	0.016142512 	0.019214569 	0.80313907
0.0035376884 	0.0059467067 	0.0052069997 	0.79834911
0.0035577889 	-0.0082829099 	-0.021237501 	0.8123365
0.0035778894 	-0.0082829099 	-0.021237501 	0.8123365
0.0035979899 	-0.024240481 	-0.056199604 	0.83265012
0.0036180905 	-0.038701877 	-0.091165992 	0.84424913
0.003638191 	-0.048878136 	-0.11792001 	0.83641298
0.0036582915 	-0.048878136 	-0.11792001 	0.83641298
0.003678392 	-0.052955748 	-0.13208247 	0.80431582
0.0036984925 	-0.05065812 	-0.13336855 	0.74876891
0.003718593 	-0.043416165 	-0.12426051 	0.67645079
0.0037386935 	-0.033874553 	-0.10861965 	0.59867793
0.003758794 	-0.024753916 	-0.09039508 	0.52697461
0.0037788945 	-0.024753916 	-0.09039508 	0.52697461
0.003798995 	-0.01767847 	-0.07253418 	0.46774725
0.0038190955 	-0.012863624 	-0.056586227 	0.42051904
0.003839196 	-0.0096865626 	-0.043118632 	0.38052822
0.0038592965 	-0.0074055173 	-0.032265033 	0.34231102
0.003879397 	-0.0055651663 	-0.02397455 	0.30174659
0.0038994975 	-0.0039362994 	-0.018066081 	0.25646595
0.003919598 	-0.0024828875 	-0.014120996 	0.20565321
0.0039396985 	-0.0013153666 	-0.011380582 	0.14978612
0.003959799 	-0.00050988244 	-0.0086535955 	0.090383165
0.0039798995 	-7.4259898e-05 	-0.0042027596 	0.029773143
0.004 	-7.4259898e-05 	-0.0042027596 	0.029773143
