0 	-0.0627299 	0.036411689 	1.2754431
5.5555556e-05 	-0.005184878 	-0.083943534 	1.2683364
0.00011111111 	0.0040615877 	-0.085191928 	1.2707743
0.00016666667 	0.0073181247 	-0.084328919 	1.2744434
0.00022222222 	0.0080631101 	-0.081947306 	1.2778199
0.00027777778 	0.0070990851 	-0.077996887 	1.2803705
0.00033333333 	0.0047801591 	-0.072448561 	1.2822886
0.00038888889 	0.0015256839 	-0.065208056 	1.2837376
0.00044444444 	-0.0021292264 	-0.055964103 	1.2844125
0.0005 	-0.0055627978 	-0.044160957 	1.2836497
0.00055555556 	-0.0081171591 	-0.029387592 	1.2808044
0.00061111111 	-0.0092975741 	-0.01194789 	1.2756908
0.00066666667 	-0.0090654838 	0.0067784756 	1.2688314
0.00072222222 	-0.0079614564 	0.024267282 	1.2611739
0.00077777778 	-0.0067732615 	0.037672766 	1.253388
0.00083333333 	-0.0059051602 	0.045635408 	1.2455959
0.00088888889 	-0.0053117134 	0.048864038 	1.2376924
0.00094444444 	-0.0050549584 	0.049059823 	1.2297349
0.001 	-0.005078696 	0.048321536 	1.221968
0.0010617451 	-0.0053758646 	0.048322101 	1.216899
0.0011226367 	-0.0052597402 	0.05112968 	1.2168391
0.0011826866 	-0.0048379702 	0.057287726 	1.2213972
0.0012419064 	-0.0043468601 	0.066674215 	1.2288634
0.0013003077 	-0.0043362959 	0.078461541 	1.2372243
0.0013579017 	-0.0053089493 	0.091506977 	1.2446892
0.0014146996 	-0.0076237039 	0.10447837 	1.2503021
0.0014707124 	-0.011481434 	0.11610939 	1.2540655
0.0015259509 	-0.016966636 	0.12534613 	1.2566479
0.001580426 	-0.024174631 	0.13128922 	1.2590155
0.001634148 	-0.033431335 	0.13337164 	1.2621937
0.0016871274 	-0.045229303 	0.13189677 	1.266478
0.0017393745 	-0.059545432 	0.12757462 	1.2705229
0.0017908994 	-0.074829325 	0.11949469 	1.2716952
0.0018417121 	-0.088409781 	0.10537185 	1.2679656
0.0018918224 	-0.098863146 	0.085532485 	1.259394
0.0019412401 	-0.10678752 	0.064097763 	1.2478845
0.0019899746 	-0.11290385 	0.044828282 	1.236229
0.0020380356 	-0.11703106 	0.027627618 	1.2259042
0.0020854322 	-0.11872801 	0.0091924473 	1.2153404
0.0021321736 	-0.11804207 	-0.013098268 	1.2019333
0.002178269 	-0.11589096 	-0.038573131 	1.1847762
0.0022237272 	-0.11360808 	-0.063995386 	1.1645852
0.002268557 	-0.11224521 	-0.085550034 	1.143211
0.0023127672 	-0.11220154 	-0.10070644 	1.1231385
0.0023563662 	-0.11294456 	-0.10924119 	1.1064189
0.0023993626 	-0.11334874 	-0.1126339 	1.0934732
0.0024417647 	-0.11255947 	-0.11266606 	1.0827969
0.0024835806 	-0.11062903 	-0.11031797 	1.0717631
0.0025248186 	-0.10840513 	-0.1053322 	1.058502
0.0025654865 	-0.10688282 	-0.096720614 	1.0429855
0.0026055923 	-0.10642227 	-0.083744683 	1.0258249
0.0026451437 	-0.10679745 	-0.066174485 	1.0069751
0.0026841484 	-0.10769949 	-0.044596651 	0.98644101
0.002722614 	-0.10910388 	-0.020995949 	0.96561683
0.0027605478 	-0.11148879 	0.0011505166 	0.94717403
0.0027979573 	-0.1153494 	0.01778271 	0.93318688
0.0028348498 	-0.12023799 	0.02803293 	0.92508595
0.0028712322 	-0.12430633 	0.036582494 	0.92419151
0.0029071118 	-0.12638002 	0.048274251 	0.92872583
0.0029424953 	-0.12750595 	0.062003542 	0.93211009
0.0029773898 	-0.12903698 	0.072960675 	0.92941243
0.003011802 	-0.13135742 	0.0789721 	0.92093383
0.0030457385 	-0.13395069 	0.080997797 	0.90887392
0.0030792059 	-0.13611676 	0.080417796 	0.89492479
0.0031122107 	-0.13728946 	0.077635619 	0.88040264
0.0031447592 	-0.13709605 	0.072492697 	0.86646093
0.0031768579 	-0.13543056 	0.065019079 	0.85401352
0.0032085129 	-0.13240141 	0.055655836 	0.84373223
0.0032397303 	-0.12829896 	0.045126658 	0.83596899
0.0032705162 	-0.12346009 	0.034249706 	0.83070486
0.0033008765 	-0.11813566 	0.023797353 	0.82757078
0.0033308172 	-0.11248737 	0.014437492 	0.82591346
0.0033603441 	-0.10665603 	0.0067022986 	0.82486755
0.0033894627 	-0.10063559 	0.00093432369 	0.82366984
0.0034181789 	-0.094295555 	-0.0026507484 	0.82162237
0.0034464982 	-0.087524239 	-0.0039323395 	0.81811261
0.003474426 	-0.080271556 	-0.0029149578 	0.81272506
0.0035019678 	-0.072579642 	0.00029019767 	0.80520843
0.0035291288 	-0.064562787 	0.0054571347 	0.79549219
0.0035559144 	-0.056383241 	0.012291356 	0.78362302
0.0035823298 	-0.048229505 	0.020493634 	0.76971916
0.0036083801 	-0.040323379 	0.029834145 	0.75391623
0.0036340702 	-0.032878186 	0.040152757 	0.7363236
0.0036594053 	-0.026055767 	0.051263089 	0.71692015
0.0036843901 	-0.019982522 	0.062744812 	0.69555665
0.0037090296 	-0.014754021 	0.073825881 	0.67197124
0.0037333285 	-0.01042871 	0.083478364 	0.64587698
0.0037572915 	-0.0070127565 	0.090757437 	0.61703422
0.0037809233 	-0.0044313711 	0.095059307 	0.58520165
0.0038042285 	-0.0025312431 	0.096159264 	0.54998596
0.0038272115 	-0.0011354819 	0.093994499 	0.51078787
0.0038498768 	-0.00012505299 	0.08849713 	0.46683609
0.0038722288 	0.00052640866 	0.079694062 	0.41714621
0.0038942718 	0.00082653915 	0.067969523 	0.36039004
0.0039160102 	0.00082046594 	0.054174355 	0.29505512
0.003937448 	0.00060067308 	0.039334809 	0.2201625
0.0039585896 	0.0002986969 	0.024050902 	0.13627516
0.0039794389 	6.3392915e-05 	0.0081663443 	0.046095248
0.004 	-0.00018111608 	0.014208985 	0.043787416
