0 	0.0081806012 	-0.01788265 	1.3356357
2.0100503e-05 	0.0081806012 	-0.01788265 	1.3356357
4.0201005e-05 	0.0081806012 	-0.01788265 	1.3356357
6.0301508e-05 	0.010946775 	-0.0052326272 	1.3391708
8.040201e-05 	0.010946775 	-0.0052326272 	1.3391708
0.00010050251 	0.010946775 	-0.0052326272 	1.3391708
0.00012060302 	0.005465782 	0.000284369 	1.34227
0.00014070352 	0.005465782 	0.000284369 	1.34227
0.00016080402 	0.005465782 	0.000284369 	1.34227
0.00018090452 	-0.00051897872 	0.0014134363 	1.3439798
0.00020100503 	-0.00051897872 	0.0014134363 	1.3439798
0.00022110553 	-0.00021553728 	-0.0019509869 	1.346557
0.00024120603 	-0.0045081381 	-0.0030774334 	1.3443943
0.00026130653 	-0.0045081381 	-0.0030774334 	1.3443943
0.00028140704 	-0.0076059077 	-0.0027872697 	1.3407845
0.00030150754 	-0.0076059077 	-0.0027872697 	1.3407845
0.00032160804 	-0.0076059077 	-0.0027872697 	1.3407845
0.00034170854 	-0.010348303 	-0.00096305046 	1.338709
0.00036180905 	-0.010348303 	-0.00096305046 	1.338709
0.00038190955 	-0.010348303 	-0.00096305046 	1.338709
0.00040201005 	-0.01368226 	0.0085464555 	1.3473385
0.00042211055 	-0.01368226 	0.0085464555 	1.3473385
0.00044221106 	-0.01368226 	0.0085464555 	1.3473385
0.00046231156 	-0.018078779 	0.0099391229 	1.3606727
0.00048241206 	-0.018078779 	0.0099391229 	1.3606727
0.00050251256 	-0.023458606 	0.0088548433 	1.3778923
0.00052261307 	-0.023458606 	0.0088548433 	1.3778923
0.00054271357 	-0.023458606 	0.0088548433 	1.3778923
0.00056281407 	-0.024564354 	-0.0059091431 	1.3847954
0.00058291457 	-0.024564354 	-0.0059091431 	1.3847954
0.00060301508 	-0.024564354 	-0.0059091431 	1.3847954
0.00062311558 	-0.025371341 	-0.013811353 	1.3852082
0.00064321608 	-0.025371341 	-0.013811353 	1.3852082
0.00066331658 	-0.025371341 	-0.013811353 	1.3852082
0.00068341709 	-0.031028584 	-0.008795129 	1.372443
0.00070351759 	-0.031028584 	-0.008795129 	1.372443
0.00072361809 	-0.028326125 	-0.015053042 	1.3420037
0.00074371859 	-0.028326125 	-0.015053042 	1.3420037
0.0007638191 	-0.028326125 	-0.015053042 	1.3420037
0.0007839196 	-0.025407582 	-0.01788311 	1.3048002
0.0008040201 	-0.025407582 	-0.01788311 	1.3048002
0.0008241206 	-0.025407582 	-0.01788311 	1.3048002
0.00084422111 	-0.024417288 	-0.015398703 	1.269535
0.00086432161 	-0.024417288 	-0.015398703 	1.269535
0.00088442211 	-0.024417288 	-0.015398703 	1.269535
0.00090452261 	-0.02677661 	-0.0068795673 	1.2417162
0.00092462312 	-0.02677661 	-0.0068795673 	1.2417162
0.00094472362 	-0.024225376 	-0.011173161 	1.2307419
0.00096482412 	-0.024225376 	-0.011173161 	1.2307419
0.00098492462 	-0.024225376 	-0.011173161 	1.2307419
0.0010050251 	-0.03555169 	0.0073416536 	1.213017
0.0010251256 	-0.03555169 	0.0073416536 	1.213017
0.0010452261 	-0.03555169 	0.0073416536 	1.213017
0.0010653266 	-0.048729179 	0.029630656 	1.1959139
0.0010854271 	-0.048729179 	0.029630656 	1.1959139
0.0011055276 	-0.048729179 	0.029630656 	1.1959139
0.0011256281 	-0.062818927 	0.053395386 	1.1767475
0.0011457286 	-0.062818927 	0.053395386 	1.1767475
0.0011658291 	-0.062818927 	0.053395386 	1.1767475
0.0011859296 	-0.075657336 	0.074675342 	1.1557327
0.0012060302 	-0.075657336 	0.074675342 	1.1557327
0.0012261307 	-0.075657336 	0.074675342 	1.1557327
0.0012462312 	-0.085748574 	0.089070088 	1.1370495
0.0012663317 	-0.085748574 	0.089070088 	1.1370495
0.0012864322 	-0.085748574 	0.089070088 	1.1370495
0.0013065327 	-0.091398248 	0.094706735 	1.124548
0.0013266332 	-0.091398248 	0.094706735 	1.124548
0.0013467337 	-0.091398248 	0.094706735 	1.124548
0.0013668342 	-0.092960608 	0.093670544 	1.118498
0.0013869347 	-0.092960608 	0.093670544 	1.118498
0.0014070352 	-0.092960608 	0.093670544 	1.118498
0.0014271357 	-0.092195676 	0.089740793 	1.1160311
0.0014472362 	-0.092195676 	0.089740793 	1.1160311
0.0014673367 	-0.092195676 	0.089740793 	1.1160311
0.0014874372 	-0.090628327 	0.085448228 	1.1141019
0.0015075377 	-0.090628327 	0.085448228 	1.1141019
0.0015276382 	-0.089045307 	0.081709534 	1.1115573
0.0015477387 	-0.089045307 	0.081709534 	1.1115573
0.0015678392 	-0.089045307 	0.081709534 	1.1115573
0.0015879397 	-0.087698222 	0.078772568 	1.1085862
0.0016080402 	-0.087698222 	0.078772568 	1.1085862
0.0016281407 	-0.087698222 	0.078772568 	1.1085862
0.0016482412 	-0.086455388 	0.076554611 	1.105343
0.0016683417 	-0.086455388 	0.076554611 	1.105343
0.0016884422 	-0.085099368 	0.074497468 	1.101507
0.0017085427 	-0.085099368 	0.074497468 	1.101507
0.0017286432 	-0.085099368 	0.074497468 	1.101507
0.0017487437 	-0.083939513 	0.071957207 	1.0969597
0.0017688442 	-0.083939513 	0.071957207 	1.0969597
0.0017889447 	-0.083939513 	0.071957207 	1.0969597
0.0018090452 	-0.084003529 	0.06882856 	1.0923329
0.0018291457 	-0.084003529 	0.06882856 	1.0923329
0.0018492462 	-0.086278295 	0.065269755 	1.0883314
0.0018693467 	-0.086278295 	0.065269755 	1.0883314
0.0018894472 	-0.086278295 	0.065269755 	1.0883314
0.0019095477 	-0.090681807 	0.060861773 	1.08478
0.0019296482 	-0.090681807 	0.060861773 	1.08478
0.0019497487 	-0.095681188 	0.054368769 	1.0805634
0.0019698492 	-0.095681188 	0.054368769 	1.0805634
0.0019899497 	-0.099076488 	0.044615407 	1.0744201
0.0020100503 	-0.099076488 	0.044615407 	1.0744201
0.0020301508 	-0.099076488 	0.044615407 	1.0744201
0.0020502513 	-0.099421244 	0.031523016 	1.0661675
0.0020703518 	-0.099421244 	0.031523016 	1.0661675
0.0020904523 	-0.096846699 	0.01599118 	1.0569162
0.0021105528 	-0.096846699 	0.01599118 	1.0569162
0.0021306533 	-0.096846699 	0.01599118 	1.0569162
0.0021507538 	-0.09255923 	-0.0011076958 	1.0482481
0.0021708543 	-0.09255923 	-0.0011076958 	1.0482481
0.0021909548 	-0.087404369 	-0.01971182 	1.0410573
0.0022110553 	-0.087404369 	-0.01971182 	1.0410573
0.0022311558 	-0.08148862 	-0.039398476 	1.0352811
0.0022512563 	-0.08148862 	-0.039398476 	1.0352811
0.0022713568 	-0.074855685 	-0.058544805 	1.0305483
0.0022914573 	-0.074855685 	-0.058544805 	1.0305483
0.0023115578 	-0.074855685 	-0.058544805 	1.0305483
0.0023316583 	-0.067899502 	-0.075095025 	1.0266386
0.0023517588 	-0.067899502 	-0.075095025 	1.0266386
0.0023718593 	-0.061130605 	-0.087664324 	1.0235805
0.0023919598 	-0.061130605 	-0.087664324 	1.0235805
0.0024120603 	-0.054922931 	-0.095770586 	1.0216618
0.0024321608 	-0.054922931 	-0.095770586 	1.0216618
0.0024522613 	-0.049473637 	-0.099497232 	1.0213166
0.0024723618 	-0.049473637 	-0.099497232 	1.0213166
0.0024924623 	-0.044839588 	-0.099055053 	1.0229173
0.0025125628 	-0.044839588 	-0.099055053 	1.0229173
0.0025326633 	-0.040895214 	-0.094542985 	1.0266791
0.0025527638 	-0.040895214 	-0.094542985 	1.0266791
0.0025728643 	-0.037287456 	-0.08602275 	1.0325277
0.0025929648 	-0.037287456 	-0.08602275 	1.0325277
0.0026130653 	-0.03352445 	-0.073850984 	1.0400726
0.0026331658 	-0.03352445 	-0.073850984 	1.0400726
0.0026532663 	-0.029100847 	-0.058805494 	1.0486554
0.0026733668 	-0.029100847 	-0.058805494 	1.0486554
0.0026934673 	-0.023661935 	-0.04201216 	1.0574811
0.0027135678 	-0.023661935 	-0.04201216 	1.0574811
0.0027336683 	-0.01735614 	-0.024842222 	1.0657931
0.0027537688 	-0.01735614 	-0.024842222 	1.0657931
0.0027738693 	-0.010205123 	-0.0087202165 	1.073161
0.0027939698 	-0.010205123 	-0.0087202165 	1.073161
0.0028140704 	-0.0024129546 	0.0051778184 	1.0793773
0.0028341709 	-0.0024129546 	0.0051778184 	1.0793773
0.0028542714 	0.0054532473 	0.016186715 	1.0843658
0.0028743719 	0.01308013 	0.024115149 	1.0881898
0.0028944724 	0.01308013 	0.024115149 	1.0881898
0.0029145729 	0.0202733 	0.029165697 	1.0910403
0.0029346734 	0.0202733 	0.029165697 	1.0910403
0.0029547739 	0.027003662 	0.031766105 	1.093218
0.0029748744 	0.027003662 	0.031766105 	1.093218
0.0029949749 	0.033143637 	0.032452852 	1.095058
0.0030150754 	0.038572631 	0.031829018 	1.0967884
0.0030351759 	0.038572631 	0.031829018 	1.0967884
0.0030552764 	0.043337518 	0.030428919 	1.0985098
0.0030753769 	0.043337518 	0.030428919 	1.0985098
0.0030954774 	0.047564756 	0.028651949 	1.1000691
0.0031155779 	0.051437671 	0.026696086 	1.1011446
0.0031356784 	0.051437671 	0.026696086 	1.1011446
0.0031557789 	0.055078486 	0.024631479 	1.1013273
0.0031758794 	0.055078486 	0.024631479 	1.1013273
0.0031959799 	0.058475101 	0.022466421 	1.1002525
0.0032160804 	0.061582154 	0.02018458 	1.0977414
0.0032361809 	0.061582154 	0.02018458 	1.0977414
0.0032562814 	0.064304633 	0.017786869 	1.0938266
0.0032763819 	0.066399328 	0.015334359 	1.0887835
0.0032964824 	0.066399328 	0.015334359 	1.0887835
0.0033165829 	0.067523154 	0.013077665 	1.0830522
0.0033366834 	0.067361758 	0.011569563 	1.0770512
0.0033567839 	0.067361758 	0.011569563 	1.0770512
0.0033768844 	0.065863638 	0.01151818 	1.0710071
0.0033969849 	0.063366069 	0.013335186 	1.0649529
0.0034170854 	0.063366069 	0.013335186 	1.0649529
0.0034371859 	0.060495636 	0.016775353 	1.0587583
0.0034572864 	0.057940941 	0.020935299 	1.052309
0.0034773869 	0.056168139 	0.024365951 	1.0456201
0.0034974874 	0.056168139 	0.024365951 	1.0456201
0.0035175879 	0.055178729 	0.025189755 	1.0385636
0.0035376884 	0.054457822 	0.021670871 	1.030861
0.0035577889 	0.053292758 	0.013180218 	1.0224819
0.0035778894 	0.053292758 	0.013180218 	1.0224819
0.0035979899 	0.051436226 	0.00036827873 	1.0139057
0.0036180905 	0.049149383 	-0.015185057 	1.0057674
0.003638191 	0.046981655 	-0.031407605 	0.997698
0.0036582915 	0.046981655 	-0.031407605 	0.997698
0.003678392 	0.045719696 	-0.046540611 	0.9868583
0.0036984925 	0.046008208 	-0.059827751 	0.9688276
0.003718593 	0.047554732 	-0.07062667 	0.94160991
0.0037386935 	0.048802863 	-0.0762464 	0.90898528
0.003758794 	0.0478594 	-0.07173996 	0.87846802
0.0037788945 	0.0478594 	-0.07173996 	0.87846802
0.003798995 	0.043721227 	-0.053829736 	0.854218
0.0038190955 	0.036863388 	-0.025490201 	0.83175892
0.003839196 	0.028816436 	0.0051049189 	0.80009106
0.0038592965 	0.021183731 	0.030815195 	0.74862683
0.003879397 	0.014734203 	0.048900907 	0.67186944
0.0038994975 	0.0095371827 	0.057891877 	0.57044806
0.003919598 	0.0055313957 	0.055460067 	0.44966272
0.0039396985 	0.0026410416 	0.042460278 	0.31746918
0.003959799 	0.00074543464 	0.025273195 	0.18381899
0.0039798995 	-4.6252938e-05 	0.0089028026 	0.057725316
0.004 	-4.6252938e-05 	0.0089028026 	0.057725316
