0 	0.067984614 	-0.0034940982 	1.3614483
2.0100503e-05 	0.067984614 	-0.0034940982 	1.3614483
4.0201005e-05 	0.067984614 	-0.0034940982 	1.3614483
6.0301508e-05 	0.054009973 	-0.031949342 	1.3522345
8.040201e-05 	0.054009973 	-0.031949342 	1.3522345
0.00010050251 	0.054009973 	-0.031949342 	1.3522345
0.00012060302 	0.043845405 	-0.031296934 	1.3461723
0.00014070352 	0.043845405 	-0.031296934 	1.3461723
0.00016080402 	0.043845405 	-0.031296934 	1.3461723
0.00018090452 	0.036455899 	-0.022872312 	1.342894
0.00020100503 	0.0090257297 	-0.027687292 	1.3354324
0.00022110553 	0.0090257297 	-0.027687292 	1.3354324
0.00024120603 	0.0082232898 	-0.013644648 	1.3335947
0.00026130653 	0.0082232898 	-0.013644648 	1.3335947
0.00028140704 	0.025157627 	0.0011036147 	1.3403579
0.00030150754 	0.025157627 	0.0011036147 	1.3403579
0.00032160804 	0.025157627 	0.0011036147 	1.3403579
0.00034170854 	0.019920722 	0.013038001 	1.3381131
0.00036180905 	0.019920722 	0.013038001 	1.3381131
0.00038190955 	0.019920722 	0.013038001 	1.3381131
0.00040201005 	0.014213768 	0.023750738 	1.3334496
0.00042211055 	0.014213768 	0.023750738 	1.3334496
0.00044221106 	0.014213768 	0.023750738 	1.3334496
0.00046231156 	0.0077259012 	0.032607936 	1.3256673
0.00048241206 	0.0077259012 	0.032607936 	1.3256673
0.00050251256 	0.00075779164 	0.038149602 	1.3146259
0.00052261307 	0.00075779164 	0.038149602 	1.3146259
0.00054271357 	0.00075779164 	0.038149602 	1.3146259
0.00056281407 	-0.0056066681 	0.03778412 	1.3019198
0.00058291457 	-0.0056066681 	0.03778412 	1.3019198
0.00060301508 	-0.0056066681 	0.03778412 	1.3019198
0.00062311558 	-0.017123457 	0.027970958 	1.2933339
0.00064321608 	-0.017123457 	0.027970958 	1.2933339
0.00066331658 	-0.017123457 	0.027970958 	1.2933339
0.00068341709 	-0.013357731 	0.01655846 	1.2914278
0.00070351759 	-0.013357731 	0.01655846 	1.2914278
0.00072361809 	-0.017601639 	0.0041782102 	1.2982755
0.00074371859 	-0.017601639 	0.0041782102 	1.2982755
0.0007638191 	-0.017601639 	0.0041782102 	1.2982755
0.0007839196 	-0.024554417 	-0.0034944247 	1.3066829
0.0008040201 	-0.024554417 	-0.0034944247 	1.3066829
0.0008241206 	-0.032666922 	-0.00082288713 	1.3154861
0.00084422111 	-0.039589041 	-0.0064140566 	1.3206525
0.00086432161 	-0.039589041 	-0.0064140566 	1.3206525
0.00088442211 	-0.039589041 	-0.0064140566 	1.3206525
0.00090452261 	-0.036590454 	-0.018151193 	1.3182945
0.00092462312 	-0.043180905 	-0.014864002 	1.3259498
0.00094472362 	-0.043417351 	-0.023745435 	1.3328623
0.00096482412 	-0.043417351 	-0.023745435 	1.3328623
0.00098492462 	-0.043417351 	-0.023745435 	1.3328623
0.0010050251 	-0.035629073 	-0.038383541 	1.3331697
0.0010251256 	-0.035629073 	-0.038383541 	1.3331697
0.0010452261 	-0.035629073 	-0.038383541 	1.3331697
0.0010653266 	-0.033922401 	-0.046304802 	1.3352134
0.0010854271 	-0.033922401 	-0.046304802 	1.3352134
0.0011055276 	-0.033922401 	-0.046304802 	1.3352134
0.0011256281 	-0.032439784 	-0.05462708 	1.3276569
0.0011457286 	-0.032439784 	-0.05462708 	1.3276569
0.0011658291 	-0.032439784 	-0.05462708 	1.3276569
0.0011859296 	-0.030257059 	-0.064498409 	1.3112319
0.0012060302 	-0.030257059 	-0.064498409 	1.3112319
0.0012261307 	-0.030257059 	-0.064498409 	1.3112319
0.0012462312 	-0.027047423 	-0.074695589 	1.2904545
0.0012663317 	-0.027047423 	-0.074695589 	1.2904545
0.0012864322 	-0.027047423 	-0.074695589 	1.2904545
0.0013065327 	-0.023188082 	-0.084021241 	1.2696125
0.0013266332 	-0.023188082 	-0.084021241 	1.2696125
0.0013467337 	-0.023188082 	-0.084021241 	1.2696125
0.0013668342 	-0.018597465 	-0.092040835 	1.2506013
0.0013869347 	-0.018597465 	-0.092040835 	1.2506013
0.0014070352 	-0.018597465 	-0.092040835 	1.2506013
0.0014271357 	-0.013130359 	-0.098330208 	1.233858
0.0014472362 	-0.013130359 	-0.098330208 	1.233858
0.0014673367 	-0.013130359 	-0.098330208 	1.233858
0.0014874372 	-0.0075015024 	-0.10223513 	1.2198323
0.0015075377 	-0.0075015024 	-0.10223513 	1.2198323
0.0015276382 	-0.0028815148 	-0.10304583 	1.2091631
0.0015477387 	-0.0028815148 	-0.10304583 	1.2091631
0.0015678392 	-0.0028815148 	-0.10304583 	1.2091631
0.0015879397 	0.00012345882 	-0.10056723 	1.2015107
0.0016080402 	0.00012345882 	-0.10056723 	1.2015107
0.0016281407 	0.00012345882 	-0.10056723 	1.2015107
0.0016482412 	0.001928775 	-0.095609917 	1.1950744
0.0016683417 	0.001928775 	-0.095609917 	1.1950744
0.0016884422 	0.0036509662 	-0.089847698 	1.1879742
0.0017085427 	0.0036509662 	-0.089847698 	1.1879742
0.0017286432 	0.0036509662 	-0.089847698 	1.1879742
0.0017487437 	0.0060804428 	-0.084682335 	1.1794877
0.0017688442 	0.0060804428 	-0.084682335 	1.1794877
0.0017889447 	0.0060804428 	-0.084682335 	1.1794877
0.0018090452 	0.0094654509 	-0.080716314 	1.1698568
0.0018291457 	0.0094654509 	-0.080716314 	1.1698568
0.0018492462 	0.013584931 	-0.077869123 	1.1596977
0.0018693467 	0.013584931 	-0.077869123 	1.1596977
0.0018894472 	0.013584931 	-0.077869123 	1.1596977
0.0019095477 	0.018148429 	-0.075506065 	1.1501417
0.0019296482 	0.018148429 	-0.075506065 	1.1501417
0.0019497487 	0.022963747 	-0.073064542 	1.1427002
0.0019698492 	0.022963747 	-0.073064542 	1.1427002
0.0019899497 	0.028023742 	-0.070351638 	1.1389094
0.0020100503 	0.028023742 	-0.070351638 	1.1389094
0.0020301508 	0.028023742 	-0.070351638 	1.1389094
0.0020502513 	0.033534349 	-0.067429326 	1.1395928
0.0020703518 	0.033534349 	-0.067429326 	1.1395928
0.0020904523 	0.039600244 	-0.064411579 	1.1441571
0.0021105528 	0.039600244 	-0.064411579 	1.1441571
0.0021306533 	0.039600244 	-0.064411579 	1.1441571
0.0021507538 	0.045597585 	-0.060796576 	1.1503342
0.0021708543 	0.045597585 	-0.060796576 	1.1503342
0.0021909548 	0.050207664 	-0.055632227 	1.1549672
0.0022110553 	0.050207664 	-0.055632227 	1.1549672
0.0022311558 	0.052613699 	-0.048360573 	1.1561593
0.0022512563 	0.052613699 	-0.048360573 	1.1561593
0.0022713568 	0.052826544 	-0.039445573 	1.1547314
0.0022914573 	0.052826544 	-0.039445573 	1.1547314
0.0023115578 	0.052826544 	-0.039445573 	1.1547314
0.0023316583 	0.051224973 	-0.030005372 	1.1528482
0.0023517588 	0.051224973 	-0.030005372 	1.1528482
0.0023718593 	0.048105367 	-0.021327347 	1.1524056
0.0023919598 	0.048105367 	-0.021327347 	1.1524056
0.0024120603 	0.043597686 	-0.014365761 	1.1539938
0.0024321608 	0.043597686 	-0.014365761 	1.1539938
0.0024522613 	0.037724614 	-0.0091701413 	1.1564317
0.0024723618 	0.037724614 	-0.0091701413 	1.1564317
0.0024924623 	0.030295471 	-0.0047015331 	1.1567112
0.0025125628 	0.030295471 	-0.0047015331 	1.1567112
0.0025326633 	0.020830458 	4.3256571e-05 	1.1513936
0.0025527638 	0.020830458 	4.3256571e-05 	1.1513936
0.0025728643 	0.0089826123 	0.0057000988 	1.1402547
0.0025929648 	0.0089826123 	0.0057000988 	1.1402547
0.0026130653 	-0.0042219609 	0.013635451 	1.1270946
0.0026331658 	-0.0042219609 	0.013635451 	1.1270946
0.0026532663 	-0.016718049 	0.022976637 	1.1130323
0.0026733668 	-0.016718049 	0.022976637 	1.1130323
0.0026934673 	-0.026895813 	0.028018827 	1.0936777
0.0027135678 	-0.026895813 	0.028018827 	1.0936777
0.0027336683 	-0.033852046 	0.023904854 	1.0661098
0.0027537688 	-0.033852046 	0.023904854 	1.0661098
0.0027738693 	-0.037213701 	0.011956521 	1.0335226
0.0027939698 	-0.037213701 	0.011956521 	1.0335226
0.0028140704 	-0.037622087 	-0.0032565098 	1.001569
0.0028341709 	-0.037622087 	-0.0032565098 	1.001569
0.0028542714 	-0.036093858 	-0.017937532 	0.97370715
0.0028743719 	-0.033227537 	-0.030005003 	0.95099703
0.0028944724 	-0.033227537 	-0.030005003 	0.95099703
0.0029145729 	-0.029535127 	-0.038592029 	0.93365975
0.0029346734 	-0.029535127 	-0.038592029 	0.93365975
0.0029547739 	-0.025408182 	-0.043398755 	0.92200918
0.0029748744 	-0.025408182 	-0.043398755 	0.92200918
0.0029949749 	-0.0210035 	-0.044378649 	0.91637447
0.0030150754 	-0.016246874 	-0.041780384 	0.91655231
0.0030351759 	-0.016246874 	-0.041780384 	0.91655231
0.0030552764 	-0.011006415 	-0.036151086 	0.92155636
0.0030753769 	-0.011006415 	-0.036151086 	0.92155636
0.0030954774 	-0.0051927757 	-0.028142253 	0.92999753
0.0031155779 	0.0011473872 	-0.018291881 	0.94073923
0.0031356784 	0.0011473872 	-0.018291881 	0.94073923
0.0031557789 	0.0077903883 	-0.0069847714 	0.95304546
0.0031758794 	0.0077903883 	-0.0069847714 	0.95304546
0.0031959799 	0.014454874 	0.0054676472 	0.96661036
0.0032160804 	0.020698347 	0.018675677 	0.98120991
0.0032361809 	0.020698347 	0.018675677 	0.98120991
0.0032562814 	0.02609734 	0.032186389 	0.99643472
0.0032763819 	0.030473295 	0.045614236 	1.0116871
0.0032964824 	0.030473295 	0.045614236 	1.0116871
0.0033165829 	0.033707027 	0.058591035 	1.0263232
0.0033366834 	0.0357724 	0.07075297 	1.03984
0.0033567839 	0.0357724 	0.07075297 	1.03984
0.0033768844 	0.036670666 	0.081702651 	1.0517667
0.0033969849 	0.036426768 	0.091042379 	1.0615663
0.0034170854 	0.036426768 	0.091042379 	1.0615663
0.0034371859 	0.035197022 	0.098495217 	1.0686009
0.0034572864 	0.033206506 	0.10410513 	1.0722911
0.0034773869 	0.030726007 	0.10832352 	1.0723193
0.0034974874 	0.030726007 	0.10832352 	1.0723193
0.0035175879 	0.028039425 	0.1119035 	1.0687666
0.0035376884 	0.025477721 	0.11561164 	1.0620331
0.0035577889 	0.023274352 	0.11989353 	1.0526789
0.0035778894 	0.023274352 	0.11989353 	1.0526789
0.0035979899 	0.021521286 	0.12463933 	1.0412565
0.0036180905 	0.020380414 	0.1291669 	1.0281972
0.003638191 	0.019979059 	0.13242743 	1.013715
0.0036582915 	0.019979059 	0.13242743 	1.013715
0.003678392 	0.020402763 	0.13332556 	0.99765572
0.0036984925 	0.021654939 	0.13101589 	0.97945748
0.003718593 	0.023638376 	0.12517266 	0.95830156
0.0037386935 	0.026255138 	0.11616602 	0.93351022
0.003758794 	0.02937332 	0.10497405 	0.90498792
0.0037788945 	0.02937332 	0.10497405 	0.90498792
0.003798995 	0.032804619 	0.092637583 	0.87363779
0.0038190955 	0.036177953 	0.079440449 	0.84170631
0.003839196 	0.038765479 	0.064268195 	0.81290361
0.0038592965 	0.039698307 	0.044475665 	0.79112197
0.003879397 	0.03786756 	0.015203629 	0.7756732
0.0038994975 	0.032441557 	-0.029872847 	0.75426998
0.003919598 	0.023207599 	-0.089305787 	0.6944462
0.0039396985 	0.011989851 	-0.13525726 	0.55748471
0.003959799 	0.0033633334 	-0.12562229 	0.34751239
0.0039798995 	4.5663266e-06 	-0.055105607 	0.11486652
0.004 	4.5663266e-06 	-0.055105607 	0.11486652
