0 	-4.082976e-05 	0.047688208 	1.4173892
2.0100503e-05 	0.046423128 	-0.0040327749 	1.4122051
4.0201005e-05 	0.046423128 	-0.0040327749 	1.4122051
6.0301508e-05 	0.034640192 	-0.025707767 	1.4039953
8.040201e-05 	0.034640192 	-0.025707767 	1.4039953
0.00010050251 	0.034640192 	-0.025707767 	1.4039953
0.00012060302 	0.023772046 	-0.028095465 	1.3953436
0.00014070352 	0.023772046 	-0.028095465 	1.3953436
0.00016080402 	0.023772046 	-0.028095465 	1.3953436
0.00018090452 	0.013140337 	-0.023383531 	1.3887219
0.00020100503 	0.013140337 	-0.023383531 	1.3887219
0.00022110553 	0.013140337 	-0.023383531 	1.3887219
0.00024120603 	0.0031128623 	-0.012848367 	1.3845776
0.00026130653 	0.0031128623 	-0.012848367 	1.3845776
0.00028140704 	-0.005306005 	0.00062234151 	1.3820271
0.00030150754 	-0.005306005 	0.00062234151 	1.3820271
0.00032160804 	-0.005306005 	0.00062234151 	1.3820271
0.00034170854 	-0.011691393 	0.012470742 	1.3813229
0.00036180905 	-0.011691393 	0.012470742 	1.3813229
0.00038190955 	-0.011691393 	0.012470742 	1.3813229
0.00040201005 	-0.016121981 	0.019576041 	1.383527
0.00042211055 	-0.016121981 	0.019576041 	1.383527
0.00044221106 	-0.016121981 	0.019576041 	1.383527
0.00046231156 	-0.018877292 	0.021147648 	1.3879952
0.00048241206 	-0.018877292 	0.021147648 	1.3879952
0.00050251256 	-0.020212551 	0.017644963 	1.3926813
0.00052261307 	-0.020212551 	0.017644963 	1.3926813
0.00054271357 	-0.020212551 	0.017644963 	1.3926813
0.00056281407 	-0.020372196 	0.010318072 	1.3960707
0.00058291457 	-0.020372196 	0.010318072 	1.3960707
0.00060301508 	-0.020372196 	0.010318072 	1.3960707
0.00062311558 	-0.019158965 	-0.0017085266 	1.3999363
0.00064321608 	-0.019158965 	-0.0017085266 	1.3999363
0.00066331658 	-0.019158965 	-0.0017085266 	1.3999363
0.00068341709 	-0.019805284 	-0.01035091 	1.4006454
0.00070351759 	-0.019805284 	-0.01035091 	1.4006454
0.00072361809 	-0.020376312 	-0.014832907 	1.3997074
0.00074371859 	-0.020376312 	-0.014832907 	1.3997074
0.0007638191 	-0.020376312 	-0.014832907 	1.3997074
0.0007839196 	-0.021206566 	-0.014198531 	1.3961788
0.0008040201 	-0.021206566 	-0.014198531 	1.3961788
0.0008241206 	-0.021206566 	-0.014198531 	1.3961788
0.00084422111 	-0.022563962 	-0.0099120708 	1.3898631
0.00086432161 	-0.022563962 	-0.0099120708 	1.3898631
0.00088442211 	-0.022563962 	-0.0099120708 	1.3898631
0.00090452261 	-0.023229317 	-0.0055756734 	1.3834364
0.00092462312 	-0.023229317 	-0.0055756734 	1.3834364
0.00094472362 	-0.025739172 	0.00028787155 	1.3760163
0.00096482412 	-0.025739172 	0.00028787155 	1.3760163
0.00098492462 	-0.025739172 	0.00028787155 	1.3760163
0.0010050251 	-0.026858017 	0.0041778577 	1.3738131
0.0010251256 	-0.026858017 	0.0041778577 	1.3738131
0.0010452261 	-0.026858017 	0.0041778577 	1.3738131
0.0010653266 	-0.027758453 	0.0029681494 	1.3828822
0.0010854271 	-0.027758453 	0.0029681494 	1.3828822
0.0011055276 	-0.027758453 	0.0029681494 	1.3828822
0.0011256281 	-0.028853668 	0.0018944917 	1.3895724
0.0011457286 	-0.028853668 	0.0018944917 	1.3895724
0.0011658291 	-0.028853668 	0.0018944917 	1.3895724
0.0011859296 	-0.029852128 	-0.002251609 	1.3958019
0.0012060302 	-0.029852128 	-0.002251609 	1.3958019
0.0012261307 	-0.029852128 	-0.002251609 	1.3958019
0.0012462312 	-0.030673723 	-0.0076456253 	1.3992
0.0012663317 	-0.030673723 	-0.0076456253 	1.3992
0.0012864322 	-0.030673723 	-0.0076456253 	1.3992
0.0013065327 	-0.030901277 	-0.011677238 	1.3977825
0.0013266332 	-0.030901277 	-0.011677238 	1.3977825
0.0013467337 	-0.030901277 	-0.011677238 	1.3977825
0.0013668342 	-0.030117442 	-0.012794075 	1.390651
0.0013869347 	-0.030117442 	-0.012794075 	1.390651
0.0014070352 	-0.030117442 	-0.012794075 	1.390651
0.0014271357 	-0.028325341 	-0.01074675 	1.3788042
0.0014472362 	-0.028325341 	-0.01074675 	1.3788042
0.0014673367 	-0.028325341 	-0.01074675 	1.3788042
0.0014874372 	-0.025748809 	-0.0057324647 	1.3642457
0.0015075377 	-0.025748809 	-0.0057324647 	1.3642457
0.0015276382 	-0.022393779 	0.0018595972 	1.3486833
0.0015477387 	-0.022393779 	0.0018595972 	1.3486833
0.0015678392 	-0.022393779 	0.0018595972 	1.3486833
0.0015879397 	-0.017952469 	0.011005939 	1.3332568
0.0016080402 	-0.017952469 	0.011005939 	1.3332568
0.0016281407 	-0.017952469 	0.011005939 	1.3332568
0.0016482412 	-0.0122566 	0.019819333 	1.3189802
0.0016683417 	-0.0122566 	0.019819333 	1.3189802
0.0016884422 	-0.0056895693 	0.026030207 	1.3068063
0.0017085427 	-0.0056895693 	0.026030207 	1.3068063
0.0017286432 	-0.0056895693 	0.026030207 	1.3068063
0.0017487437 	0.0010954529 	0.02822687 	1.2971189
0.0017688442 	0.0010954529 	0.02822687 	1.2971189
0.0017889447 	0.0010954529 	0.02822687 	1.2971189
0.0018090452 	0.007632126 	0.026623071 	1.2891936
0.0018291457 	0.007632126 	0.026623071 	1.2891936
0.0018492462 	0.013693202 	0.022416655 	1.2817956
0.0018693467 	0.013693202 	0.022416655 	1.2817956
0.0018894472 	0.013693202 	0.022416655 	1.2817956
0.0019095477 	0.019117354 	0.01687603 	1.2743848
0.0019296482 	0.019117354 	0.01687603 	1.2743848
0.0019497487 	0.023614858 	0.010950728 	1.2673223
0.0019698492 	0.023614858 	0.010950728 	1.2673223
0.0019899497 	0.026892348 	0.0052789336 	1.2611791
0.0020100503 	0.026892348 	0.0052789336 	1.2611791
0.0020301508 	0.026892348 	0.0052789336 	1.2611791
0.0020502513 	0.028840172 	0.00029140652 	1.2562606
0.0020703518 	0.028840172 	0.00029140652 	1.2562606
0.0020904523 	0.029550371 	-0.0037292453 	1.2525604
0.0021105528 	0.029550371 	-0.0037292453 	1.2525604
0.0021306533 	0.029550371 	-0.0037292453 	1.2525604
0.0021507538 	0.029363387 	-0.0065683135 	1.2497776
0.0021708543 	0.029363387 	-0.0065683135 	1.2497776
0.0021909548 	0.028803167 	-0.0080746479 	1.2472449
0.0022110553 	0.028803167 	-0.0080746479 	1.2472449
0.0022311558 	0.028459062 	-0.0083523471 	1.2437948
0.0022512563 	0.028459062 	-0.0083523471 	1.2437948
0.0022713568 	0.028841495 	-0.0079392813 	1.2380687
0.0022914573 	0.028841495 	-0.0079392813 	1.2380687
0.0023115578 	0.028841495 	-0.0079392813 	1.2380687
0.0023316583 	0.030171907 	-0.0076824387 	1.2293676
0.0023517588 	0.030171907 	-0.0076824387 	1.2293676
0.0023718593 	0.03206981 	-0.0084154269 	1.2180578
0.0023919598 	0.03206981 	-0.0084154269 	1.2180578
0.0024120603 	0.033805522 	-0.010726676 	1.2050549
0.0024321608 	0.033805522 	-0.010726676 	1.2050549
0.0024522613 	0.034554795 	-0.014831165 	1.1915032
0.0024723618 	0.034554795 	-0.014831165 	1.1915032
0.0024924623 	0.033507226 	-0.020666189 	1.1783533
0.0025125628 	0.033507226 	-0.020666189 	1.1783533
0.0025326633 	0.030124074 	-0.027939294 	1.1664816
0.0025527638 	0.030124074 	-0.027939294 	1.1664816
0.0025728643 	0.024067692 	-0.036350476 	1.1565723
0.0025929648 	0.024067692 	-0.036350476 	1.1565723
0.0026130653 	0.015385879 	-0.045712637 	1.149105
0.0026331658 	0.015385879 	-0.045712637 	1.149105
0.0026532663 	0.0045735345 	-0.055962801 	1.1441439
0.0026733668 	0.0045735345 	-0.055962801 	1.1441439
0.0026934673 	-0.0075563447 	-0.067070182 	1.1411993
0.0027135678 	-0.0075563447 	-0.067070182 	1.1411993
0.0027336683 	-0.019993652 	-0.078843738 	1.1394613
0.0027537688 	-0.019993652 	-0.078843738 	1.1394613
0.0027738693 	-0.031758323 	-0.090928458 	1.1381162
0.0027939698 	-0.031758323 	-0.090928458 	1.1381162
0.0028140704 	-0.042088555 	-0.10297004 	1.1365878
0.0028341709 	-0.042088555 	-0.10297004 	1.1365878
0.0028542714 	-0.050520834 	-0.11477068 	1.1344618
0.0028743719 	-0.056873919 	-0.12628943 	1.131253
0.0028944724 	-0.056873919 	-0.12628943 	1.131253
0.0029145729 	-0.06123725 	-0.13747586 	1.1263189
0.0029346734 	-0.06123725 	-0.13747586 	1.1263189
0.0029547739 	-0.063951881 	-0.14805182 	1.1190344
0.0029748744 	-0.063951881 	-0.14805182 	1.1190344
0.0029949749 	-0.065578572 	-0.15731356 	1.1091353
0.0030150754 	-0.066784371 	-0.16397962 	1.0968272
0.0030351759 	-0.066784371 	-0.16397962 	1.0968272
0.0030552764 	-0.068154835 	-0.16612047 	1.0821963
0.0030753769 	-0.068154835 	-0.16612047 	1.0821963
0.0030954774 	-0.06993849 	-0.16128335 	1.0639553
0.0031155779 	-0.071900023 	-0.14686434 	1.0386267
0.0031356784 	-0.071900023 	-0.14686434 	1.0386267
0.0031557789 	-0.073470448 	-0.12101413 	1.0019345
0.0031758794 	-0.073470448 	-0.12101413 	1.0019345
0.0031959799 	-0.074146921 	-0.084477452 	0.95260928
0.0032160804 	-0.074135755 	-0.043163376 	0.89575052
0.0032361809 	-0.074135755 	-0.043163376 	0.89575052
0.0032562814 	-0.074273184 	-0.0083884684 	0.84143466
0.0032763819 	-0.075167008 	0.0088637563 	0.79774387
0.0032964824 	-0.075167008 	0.0088637563 	0.79774387
0.0033165829 	-0.07689054 	0.0055588572 	0.76545923
0.0033366834 	-0.079642607 	-0.01268105 	0.73968698
0.0033567839 	-0.079642607 	-0.01268105 	0.73968698
0.0033768844 	-0.083987308 	-0.037229068 	0.715867
0.0033969849 	-0.089976436 	-0.059329984 	0.691835
0.0034170854 	-0.089976436 	-0.059329984 	0.691835
0.0034371859 	-0.096698814 	-0.072937539 	0.66695746
0.0034572864 	-0.10245094 	-0.076753395 	0.6415628
0.0034773869 	-0.10565147 	-0.072730977 	0.61678295
0.0034974874 	-0.10565147 	-0.072730977 	0.61678295
0.0035175879 	-0.10568558 	-0.06356523 	0.59439683
0.0035376884 	-0.10294804 	-0.051650532 	0.57628273
0.0035577889 	-0.098315617 	-0.038880608 	0.56339128
0.0035778894 	-0.098315617 	-0.038880608 	0.56339128
0.0035979899 	-0.092623384 	-0.026544078 	0.55532645
0.0036180905 	-0.086257753 	-0.015329331 	0.55090534
0.003638191 	-0.079218329 	-0.0054113098 	0.54894625
0.0036582915 	-0.079218329 	-0.0054113098 	0.54894625
0.003678392 	-0.071840801 	0.0032435245 	0.54742462
0.0036984925 	-0.064505269 	0.01080508 	0.54450504
0.003718593 	-0.057364016 	0.017524398 	0.53935047
0.0037386935 	-0.050599735 	0.023519473 	0.53105752
0.003758794 	-0.044219439 	0.028715443 	0.51856127
0.0037788945 	-0.044219439 	0.028715443 	0.51856127
0.003798995 	-0.038077189 	0.032906963 	0.50067773
0.0038190955 	-0.032063592 	0.03590466 	0.47641282
0.003839196 	-0.026112843 	0.037471084 	0.44490665
0.0038592965 	-0.02028658 	0.037436862 	0.40574278
0.003879397 	-0.014793283 	0.03577889 	0.3591807
0.0038994975 	-0.0099255532 	0.032622396 	0.30597981
0.003919598 	-0.0059381899 	0.028108161 	0.24688574
0.0039396985 	-0.0029606244 	0.022244895 	0.18236276
0.003959799 	-0.0010118808 	0.014910977 	0.11284196
0.0039798995 	-0.00010395364 	0.0058110534 	0.039012426
0.004 	-0.00010395364 	0.0058110534 	0.039012426
