0 	0.029440992 	0.037080272 	1.4276946
5.5555556e-05 	-0.028768114 	0.0034069642 	1.441251
0.00011111111 	-0.020052379 	-0.0027543186 	1.4492666
0.00016666667 	-0.011800821 	-0.0075226135 	1.4529727
0.00022222222 	-0.0048043974 	-0.011785883 	1.4496871
0.00027777778 	0.00011160003 	-0.014833267 	1.439613
0.00033333333 	0.0026749481 	-0.016328248 	1.425121
0.00038888889 	0.0034504074 	-0.016885779 	1.4086583
0.00044444444 	0.0034969806 	-0.017302026 	1.3915209
0.0005 	0.0034856092 	-0.01778518 	1.3740183
0.00055555556 	0.0035559027 	-0.018276051 	1.3558729
0.00061111111 	0.0037186356 	-0.018660215 	1.3365712
0.00066666667 	0.0036742972 	-0.018887779 	1.3159198
0.00072222222 	0.0030410463 	-0.018814697 	1.2947935
0.00077777778 	0.0016567594 	-0.018071301 	1.2752688
0.00083333333 	-0.00074112925 	-0.016234469 	1.25978
0.00088888889 	-0.0035808908 	-0.013172139 	1.2492937
0.00094444444 	-0.0063319649 	-0.008234748 	1.2428716
0.001 	-0.0090652109 	-0.0013123469 	1.2377434
0.0010617199 	-0.012513785 	0.0080033663 	1.2298592
0.0011225874 	-0.015749196 	0.01715299 	1.2161519
0.0011826143 	-0.017895613 	0.025328012 	1.1956961
0.0012418122 	-0.018168927 	0.032436422 	1.1696607
0.0013001926 	-0.015227988 	0.038074527 	1.1406865
0.0013577668 	-0.009112196 	0.042288481 	1.1114804
0.0014145458 	-0.0017174302 	0.046035607 	1.0844923
0.0014705407 	0.0046592942 	0.050810936 	1.0620592
0.0015257623 	0.0089440075 	0.057466851 	1.0452357
0.0015802213 	0.011289362 	0.065417072 	1.0331635
0.0016339282 	0.012387249 	0.072941189 	1.0242494
0.0016868934 	0.012704592 	0.077861441 	1.0173131
0.0017391271 	0.012425839 	0.078651365 	1.0118838
0.0017906395 	0.01152408 	0.075398171 	1.0079455
0.0018414404 	0.0095636249 	0.069631845 	1.0052253
0.0018915398 	0.0065105555 	0.063707837 	1.0025119
0.0019409473 	0.0032388849 	0.06011505 	0.99864275
0.0019896725 	0.00087741931 	0.061676917 	0.99458033
0.0020377248 	-0.00034094141 	0.070896516 	0.99387293
0.0020851134 	-0.0017945006 	0.08751357 	1.0006628
0.0021318476 	-0.0058008259 	0.10694745 	1.0163011
0.0021779364 	-0.013577413 	0.12333755 	1.0370132
0.0022233887 	-0.023401357 	0.13383501 	1.0556011
0.0022682133 	-0.031334603 	0.1399157 	1.0664614
0.0023124189 	-0.034277851 	0.14512579 	1.0688267
0.0023560139 	-0.031509707 	0.15169538 	1.066291
0.0023990069 	-0.024456057 	0.15896762 	1.0653249
0.0024414062 	-0.01565866 	0.16571522 	1.071737
0.0024832199 	-0.0072936112 	0.17229188 	1.0859602
0.0025244562 	-0.00064191078 	0.17992628 	1.103564
0.002565123 	0.0041448526 	0.18925043 	1.1196426
0.0026052281 	0.0077295622 	0.19994427 	1.1311611
0.0026447794 	0.010801318 	0.2112561 	1.1365933
0.0026837845 	0.014182972 	0.22254284 	1.1349282
0.0027222509 	0.018431009 	0.23321571 	1.1253695
0.0027601861 	0.023690254 	0.24296243 	1.1075775
0.0027975974 	0.030032216 	0.25091655 	1.0821645
0.002834492 	0.037052095 	0.25597688 	1.0510683
0.0028708772 	0.043981479 	0.25681815 	1.0174901
0.0029067598 	0.049954777 	0.25248482 	0.98511719
0.0029421469 	0.054162097 	0.24281328 	0.95717331
0.0029770452 	0.056168033 	0.2283769 	0.93573685
0.0030114616 	0.055902856 	0.21033348 	0.92149687
0.0030454028 	0.053742237 	0.19011448 	0.91420621
0.0030788752 	0.050067995 	0.16894596 	0.91315679
0.0031118853 	0.045127353 	0.14737948 	0.91740759
0.0031444395 	0.038967609 	0.12525681 	0.92584184
0.0031765442 	0.031350731 	0.1020637 	0.93714723
0.0032082055 	0.022071752 	0.077557415 	0.95006568
0.0032394295 	0.01110331 	0.052159334 	0.96369074
0.0032702223 	-0.00035679537 	0.026545433 	0.97778694
0.0033005899 	-0.011289833 	0.001057462 	0.99195379
0.0033305381 	-0.021296466 	-0.024166079 	1.0048786
0.0033600727 	-0.030163407 	-0.048567316 	1.0145012
0.0033891994 	-0.038234003 	-0.070992778 	1.0184241
0.0034179239 	-0.04572042 	-0.09020506 	1.0144919
0.0034462517 	-0.052544635 	-0.10552008 	1.0010219
0.0034741882 	-0.058385843 	-0.11694948 	0.9772372
0.003501739 	-0.062769097 	-0.12482527 	0.94372555
0.0035289093 	-0.065194951 	-0.12933676 	0.90219732
0.0035557043 	-0.065239965 	-0.13035064 	0.85461105
0.0035821293 	-0.062725214 	-0.12757882 	0.80257699
0.0036081894 	-0.05788552 	-0.12098243 	0.74749451
0.0036338895 	-0.051342652 	-0.11114959 	0.69100702
0.0036592348 	-0.043919452 	-0.099300116 	0.63527237
0.00368423 	-0.036463825 	-0.086914908 	0.58267464
0.00370888 	-0.029682822 	-0.075322426 	0.53471526
0.0037331896 	-0.023967262 	-0.065360029 	0.49097863
0.0037571635 	-0.019337919 	-0.057196077 	0.44950587
0.0037808063 	-0.015580642 	-0.050486417 	0.40822144
0.0038041226 	-0.012449173 	-0.044741174 	0.36602592
0.0038271169 	-0.0097869434 	-0.039592105 	0.32290023
0.0038497936 	-0.0075325765 	-0.034830166 	0.27936446
0.0038721572 	-0.0056615589 	-0.030300259 	0.23589705
0.0038942119 	-0.0041290201 	-0.025802247 	0.19265868
0.003915962 	-0.0028551436 	-0.021087204 	0.14954718
0.0039374118 	-0.0017563844 	-0.015941644 	0.10642626
0.0039585653 	-0.00081938985 	-0.010264561 	0.06334174
0.0039794267 	-0.00013319892 	-0.0039319649 	0.020686265
0.004 	7.9547316e-06 	-0.001724394 	0.027496419
