0 	-0.01033703 	0.0033038531 	1.3929986
2.0100503e-05 	-0.01033703 	0.0033038531 	1.3929986
4.0201005e-05 	-0.01033703 	0.0033038531 	1.3929986
6.0301508e-05 	-0.012380354 	0.0023196469 	1.3959933
8.040201e-05 	-0.012380354 	0.0023196469 	1.3959933
0.00010050251 	-0.012380354 	0.0023196469 	1.3959933
0.00012060302 	-0.016043189 	0.0038401244 	1.3960883
0.00014070352 	-0.013382562 	-0.0051958541 	1.3910132
0.00016080402 	-0.013382562 	-0.0051958541 	1.3910132
0.00018090452 	-0.017380348 	-0.0073768641 	1.3874381
0.00020100503 	-0.017380348 	-0.0073768641 	1.3874381
0.00022110553 	-0.017380348 	-0.0073768641 	1.3874381
0.00024120603 	-0.022075311 	-0.014652695 	1.3755588
0.00026130653 	-0.029054038 	-0.0036993537 	1.3721407
0.00028140704 	-0.037217691 	-0.017348817 	1.3438198
0.00030150754 	-0.037217691 	-0.017348817 	1.3438198
0.00032160804 	-0.037217691 	-0.017348817 	1.3438198
0.00034170854 	-0.032712996 	-0.043911094 	1.3224074
0.00036180905 	-0.032712996 	-0.043911094 	1.3224074
0.00038190955 	-0.032712996 	-0.043911094 	1.3224074
0.00040201005 	-0.042383953 	-0.051301431 	1.297336
0.00042211055 	-0.042383953 	-0.051301431 	1.297336
0.00044221106 	-0.042383953 	-0.051301431 	1.297336
0.00046231156 	-0.056714 	-0.043864116 	1.2817365
0.00048241206 	-0.056714 	-0.043864116 	1.2817365
0.00050251256 	-0.072202867 	-0.02609685 	1.2714511
0.00052261307 	-0.072202867 	-0.02609685 	1.2714511
0.00054271357 	-0.072202867 	-0.02609685 	1.2714511
0.00056281407 	-0.085464592 	-0.0055051982 	1.2626337
0.00058291457 	-0.085464592 	-0.0055051982 	1.2626337
0.00060301508 	-0.085464592 	-0.0055051982 	1.2626337
0.00062311558 	-0.095000495 	0.013317843 	1.2530919
0.00064321608 	-0.095000495 	0.013317843 	1.2530919
0.00066331658 	-0.095000495 	0.013317843 	1.2530919
0.00068341709 	-0.10063853 	0.028510668 	1.2424448
0.00070351759 	-0.10063853 	0.028510668 	1.2424448
0.00072361809 	-0.10272096 	0.039408909 	1.2316582
0.00074371859 	-0.10272096 	0.039408909 	1.2316582
0.0007638191 	-0.10272096 	0.039408909 	1.2316582
0.0007839196 	-0.10167182 	0.04534219 	1.2200952
0.0008040201 	-0.10167182 	0.04534219 	1.2200952
0.0008241206 	-0.10167182 	0.04534219 	1.2200952
0.00084422111 	-0.10038887 	0.043807876 	1.1835213
0.00086432161 	-0.10038887 	0.043807876 	1.1835213
0.00088442211 	-0.10038887 	0.043807876 	1.1835213
0.00090452261 	-0.09429637 	0.037485806 	1.1661027
0.00092462312 	-0.09429637 	0.037485806 	1.1661027
0.00094472362 	-0.087356552 	0.029243881 	1.1510917
0.00096482412 	-0.087356552 	0.029243881 	1.1510917
0.00098492462 	-0.087356552 	0.029243881 	1.1510917
0.0010050251 	-0.079736705 	0.020081877 	1.1403373
0.0010251256 	-0.080965599 	0.024153866 	1.1444682
0.0010452261 	-0.080965599 	0.024153866 	1.1444682
0.0010653266 	-0.07501496 	0.017016791 	1.1326548
0.0010854271 	-0.07501496 	0.017016791 	1.1326548
0.0011055276 	-0.07501496 	0.017016791 	1.1326548
0.0011256281 	-0.068501337 	0.011839954 	1.1262524
0.0011457286 	-0.068501337 	0.011839954 	1.1262524
0.0011658291 	-0.068501337 	0.011839954 	1.1262524
0.0011859296 	-0.060592384 	0.0083110048 	1.1220267
0.0012060302 	-0.060592384 	0.0083110048 	1.1220267
0.0012261307 	-0.060592384 	0.0083110048 	1.1220267
0.0012462312 	-0.050955539 	0.0056495258 	1.1189565
0.0012663317 	-0.050955539 	0.0056495258 	1.1189565
0.0012864322 	-0.050955539 	0.0056495258 	1.1189565
0.0013065327 	-0.040148345 	0.0022137379 	1.1172563
0.0013266332 	-0.040148345 	0.0022137379 	1.1172563
0.0013467337 	-0.040148345 	0.0022137379 	1.1172563
0.0013668342 	-0.029355864 	-0.003755769 	1.1171298
0.0013869347 	-0.029355864 	-0.003755769 	1.1171298
0.0014070352 	-0.029355864 	-0.003755769 	1.1171298
0.0014271357 	-0.019857488 	-0.012886038 	1.1188118
0.0014472362 	-0.019857488 	-0.012886038 	1.1188118
0.0014673367 	-0.019857488 	-0.012886038 	1.1188118
0.0014874372 	-0.012686213 	-0.02471465 	1.1221165
0.0015075377 	-0.012686213 	-0.02471465 	1.1221165
0.0015276382 	-0.0085577166 	-0.037904748 	1.1259948
0.0015477387 	-0.0085577166 	-0.037904748 	1.1259948
0.0015678392 	-0.0085577166 	-0.037904748 	1.1259948
0.0015879397 	-0.0077260528 	-0.05113683 	1.1282991
0.0016080402 	-0.0077260528 	-0.05113683 	1.1282991
0.0016281407 	-0.0077260528 	-0.05113683 	1.1282991
0.0016482412 	-0.009900635 	-0.063335664 	1.1271816
0.0016683417 	-0.009900635 	-0.063335664 	1.1271816
0.0016884422 	-0.014506833 	-0.073684817 	1.1233536
0.0017085427 	-0.014506833 	-0.073684817 	1.1233536
0.0017286432 	-0.014506833 	-0.073684817 	1.1233536
0.0017487437 	-0.020338737 	-0.082137235 	1.1207059
0.0017688442 	-0.020338737 	-0.082137235 	1.1207059
0.0017889447 	-0.020338737 	-0.082137235 	1.1207059
0.0018090452 	-0.025748318 	-0.08982313 	1.1228536
0.0018291457 	-0.025748318 	-0.08982313 	1.1228536
0.0018492462 	-0.029575955 	-0.098474875 	1.1292223
0.0018693467 	-0.029575955 	-0.098474875 	1.1292223
0.0018894472 	-0.029575955 	-0.098474875 	1.1292223
0.0019095477 	-0.031716533 	-0.10890682 	1.1359227
0.0019296482 	-0.031716533 	-0.10890682 	1.1359227
0.0019497487 	-0.032865006 	-0.12017553 	1.1398401
0.0019698492 	-0.032865006 	-0.12017553 	1.1398401
0.0019899497 	-0.033739862 	-0.13031732 	1.1406873
0.0020100503 	-0.033739862 	-0.13031732 	1.1406873
0.0020301508 	-0.033739862 	-0.13031732 	1.1406873
0.0020502513 	-0.034489143 	-0.13768514 	1.1397937
0.0020703518 	-0.034489143 	-0.13768514 	1.1397937
0.0020904523 	-0.034719681 	-0.14160997 	1.1384847
0.0021105528 	-0.034719681 	-0.14160997 	1.1384847
0.0021306533 	-0.034719681 	-0.14160997 	1.1384847
0.0021507538 	-0.033530166 	-0.14210919 	1.1372119
0.0021708543 	-0.033530166 	-0.14210919 	1.1372119
0.0021909548 	-0.030069109 	-0.13933622 	1.1356454
0.0022110553 	-0.030069109 	-0.13933622 	1.1356454
0.0022311558 	-0.024077271 	-0.13329416 	1.1332703
0.0022512563 	-0.024077271 	-0.13329416 	1.1332703
0.0022713568 	-0.015763073 	-0.12399385 	1.1300293
0.0022914573 	-0.015763073 	-0.12399385 	1.1300293
0.0023115578 	-0.015763073 	-0.12399385 	1.1300293
0.0023316583 	-0.0058161175 	-0.11171884 	1.1260074
0.0023517588 	-0.0058161175 	-0.11171884 	1.1260074
0.0023718593 	0.0044903891 	-0.097283255 	1.121067
0.0023919598 	0.0044903891 	-0.097283255 	1.121067
0.0024120603 	0.013354349 	-0.082140673 	1.1149607
0.0024321608 	0.013354349 	-0.082140673 	1.1149607
0.0024522613 	0.018712298 	-0.068050863 	1.1077121
0.0024723618 	0.018712298 	-0.068050863 	1.1077121
0.0024924623 	0.018676221 	-0.056613643 	1.0994902
0.0025125628 	0.018676221 	-0.056613643 	1.0994902
0.0025326633 	0.012601788 	-0.048458321 	1.0890029
0.0025527638 	0.012601788 	-0.048458321 	1.0890029
0.0025728643 	0.0022867625 	-0.042268665 	1.0723512
0.0025929648 	0.0022867625 	-0.042268665 	1.0723512
0.0026130653 	-0.0098256288 	-0.03665295 	1.0468423
0.0026331658 	-0.0098256288 	-0.03665295 	1.0468423
0.0026532663 	-0.022067283 	-0.032758875 	1.0164357
0.0026733668 	-0.022067283 	-0.032758875 	1.0164357
0.0026934673 	-0.033757017 	-0.032568402 	0.9903716
0.0027135678 	-0.033757017 	-0.032568402 	0.9903716
0.0027336683 	-0.045237354 	-0.036046361 	0.9746772
0.0027537688 	-0.045237354 	-0.036046361 	0.9746772
0.0027738693 	-0.056354755 	-0.04158211 	0.96687474
0.0027939698 	-0.056354755 	-0.04158211 	0.96687474
0.0028140704 	-0.066762129 	-0.046596176 	0.95984382
0.0028341709 	-0.066762129 	-0.046596176 	0.95984382
0.0028542714 	-0.075838715 	-0.048273618 	0.95075615
0.0028743719 	-0.082936889 	-0.045590882 	0.94269413
0.0028944724 	-0.082936889 	-0.045590882 	0.94269413
0.0029145729 	-0.088212066 	-0.039828627 	0.93868271
0.0029346734 	-0.088212066 	-0.039828627 	0.93868271
0.0029547739 	-0.091828534 	-0.03282958 	0.93915661
0.0029748744 	-0.091828534 	-0.03282958 	0.93915661
0.0029949749 	-0.093515822 	-0.025563978 	0.9435395
0.0030150754 	-0.092859462 	-0.018183415 	0.95105822
0.0030351759 	-0.092859462 	-0.018183415 	0.95105822
0.0030552764 	-0.089757176 	-0.010662909 	0.96082418
0.0030753769 	-0.089757176 	-0.010662909 	0.96082418
0.0030954774 	-0.084247844 	-0.0032917682 	0.97179683
0.0031155779 	-0.076511488 	0.0034441529 	0.98298198
0.0031356784 	-0.076511488 	0.0034441529 	0.98298198
0.0031557789 	-0.067049479 	0.0092839463 	0.9936901
0.0031758794 	-0.067049479 	0.0092839463 	0.9936901
0.0031959799 	-0.056736682 	0.014284403 	1.0037037
0.0032160804 	-0.046687365 	0.018710178 	1.0133216
0.0032361809 	-0.046687365 	0.018710178 	1.0133216
0.0032562814 	-0.037804611 	0.022968172 	1.0233095
0.0032763819 	-0.030807666 	0.027537228 	1.0345763
0.0032964824 	-0.030807666 	0.027537228 	1.0345763
0.0033165829 	-0.02637286 	0.032723613 	1.0474674
0.0033366834 	-0.024831881 	0.038248926 	1.0610761
0.0033567839 	-0.024831881 	0.038248926 	1.0610761
0.0033768844 	-0.025787416 	0.043036656 	1.0733578
0.0033969849 	-0.028490741 	0.045499965 	1.0819305
0.0034170854 	-0.028490741 	0.045499965 	1.0819305
0.0034371859 	-0.032228059 	0.044178691 	1.0846817
0.0034572864 	-0.03611344 	0.038443549 	1.079898
0.0034773869 	-0.039168023 	0.028632755 	1.066304
0.0034974874 	-0.039168023 	0.028632755 	1.066304
0.0035175879 	-0.040680983 	0.015560918 	1.0433969
0.0035376884 	-0.040375997 	-0.00012491792 	1.011553
0.0035577889 	-0.038387363 	-0.01796316 	0.97184021
0.0035778894 	-0.038387363 	-0.01796316 	0.97184021
0.0035979899 	-0.035165162 	-0.036999643 	0.92582604
0.0036180905 	-0.031301189 	-0.055185494 	0.87573682
0.003638191 	-0.02736204 	-0.069568845 	0.82448843
0.0036582915 	-0.02736204 	-0.069568845 	0.82448843
0.003678392 	-0.023774225 	-0.077330799 	0.77517343
0.0036984925 	-0.020705731 	-0.077002821 	0.73015535
0.003718593 	-0.018104378 	-0.069056079 	0.69027968
0.0037386935 	-0.01579356 	-0.05564657 	0.65473459
0.003758794 	-0.013545703 	-0.039841176 	0.62154602
0.0037788945 	-0.013545703 	-0.039841176 	0.62154602
0.003798995 	-0.011114805 	-0.02468479 	0.58831521
0.0038190955 	-0.0083616632 	-0.012336321 	0.55318024
0.003839196 	-0.0053963985 	-0.0037605199 	0.51511505
0.0038592965 	-0.002519029 	0.0010443879 	0.47349553
0.003879397 	-0.00011918354 	0.0026151789 	0.42731322
0.0038994975 	0.0013856022 	0.001761288 	0.37463784
0.003919598 	0.0018952749 	-0.00051913677 	0.31272682
0.0039396985 	0.0016393672 	-0.0030662138 	0.23886907
0.003959799 	0.0009157411 	-0.0045799952 	0.1517677
0.0039798995 	0.00015965537 	-0.0033443281 	0.053016147
0.004 	0.00015965537 	-0.0033443281 	0.053016147
