0 	0.088257097 	0.051618688 	1.3204218
5.5555556e-05 	-0.078179535 	0.047092693 	1.3140798
0.00011111111 	-0.078261208 	0.030891951 	1.3116395
0.00016666667 	-0.073824909 	0.020006796 	1.3084311
0.00022222222 	-0.067917271 	0.011385634 	1.3035771
0.00027777778 	-0.061460211 	0.0042104367 	1.2970711
0.00033333333 	-0.05472531 	-0.0019748134 	1.289694
0.00038888889 	-0.047717038 	-0.0076144657 	1.2822872
0.00044444444 	-0.040368561 	-0.013043898 	1.2752283
0.0005 	-0.032614874 	-0.018357997 	1.2685232
0.00055555556 	-0.024437459 	-0.023327674 	1.2622061
0.00061111111 	-0.015935794 	-0.027491162 	1.2564902
0.00066666667 	-0.0073790621 	-0.030326026 	1.2516557
0.00072222222 	0.00080535385 	-0.031364801 	1.2479537
0.00077777778 	0.0079930899 	-0.030373997 	1.2456079
0.00083333333 	0.013475533 	-0.027622543 	1.2447815
0.00088888889 	0.016677766 	-0.024064025 	1.2454966
0.00094444444 	0.017649803 	-0.021503621 	1.2476278
0.001 	0.016300999 	-0.02162485 	1.2507738
0.0010617451 	0.01374574 	-0.02793306 	1.2536372
0.0011226367 	0.012802357 	-0.039319345 	1.2538452
0.0011826866 	0.014155255 	-0.053893679 	1.2493871
0.0012419064 	0.017192698 	-0.067419065 	1.2403494
0.0013003077 	0.01945422 	-0.076404349 	1.2293186
0.0013579017 	0.019253869 	-0.079393452 	1.2196365
0.0014146996 	0.016479433 	-0.077198051 	1.2129141
0.0014707124 	0.011878681 	-0.071738144 	1.2088683
0.0015259509 	0.0062102624 	-0.064901785 	1.2065728
0.001580426 	3.4557652e-05 	-0.058102489 	1.2051367
0.001634148 	-0.0063135026 	-0.052168436 	1.2036573
0.0016871274 	-0.012620224 	-0.04727379 	1.2013736
0.0017393745 	-0.018765811 	-0.042627561 	1.1981789
0.0017908994 	-0.024910482 	-0.036644433 	1.1948295
0.0018417121 	-0.031571318 	-0.027730271 	1.1924645
0.0018918224 	-0.039269964 	-0.015147036 	1.1917695
0.0019412401 	-0.04819574 	0.00050199624 	1.1925231
0.0019899746 	-0.057814025 	0.01739194 	1.193862
0.0020380356 	-0.067710136 	0.033161985 	1.1948454
0.0020854322 	-0.077453886 	0.046127406 	1.1946278
0.0021321736 	-0.085967633 	0.055839922 	1.1927839
0.002178269 	-0.092080507 	0.062466766 	1.1895188
0.0022237272 	-0.095297037 	0.066413349 	1.1852266
0.002268557 	-0.095857785 	0.068650971 	1.179837
0.0023127672 	-0.09437249 	0.070495938 	1.1732089
0.0023563662 	-0.091410285 	0.072825979 	1.165652
0.0023993626 	-0.087403772 	0.075884249 	1.1579319
0.0024417647 	-0.08263611 	0.07951872 	1.1509165
0.0024835806 	-0.077172498 	0.083488506 	1.1452825
0.0025248186 	-0.070876384 	0.08762748 	1.1414102
0.0025654865 	-0.063432724 	0.091861803 	1.1392321
0.0026055923 	-0.054580316 	0.096299036 	1.1384264
0.0026451437 	-0.044463732 	0.1013957 	1.1390472
0.0026841484 	-0.033937379 	0.10799235 	1.1420403
0.002722614 	-0.024340432 	0.11696417 	1.1486663
0.0027605478 	-0.016879809 	0.12861417 	1.1589391
0.0027979573 	-0.012190377 	0.14254431 	1.171317
0.0028348498 	-0.010462553 	0.15791888 	1.1840564
0.0028712322 	-0.011541022 	0.17353172 	1.1961693
0.0029071118 	-0.01480063 	0.18741596 	1.2068271
0.0029424953 	-0.019080326 	0.19665738 	1.2142397
0.0029773898 	-0.022716389 	0.19777914 	1.2151717
0.003011802 	-0.023895244 	0.18773491 	1.2053589
0.0030457385 	-0.021277889 	0.16557949 	1.1809419
0.0030792059 	-0.014734544 	0.13380977 	1.1403522
0.0031122107 	-0.0057219438 	0.098375699 	1.086048
0.0031447592 	0.003139182 	0.066589578 	1.0247353
0.0031768579 	0.0090598832 	0.043908964 	0.96534162
0.0032085129 	0.0097871487 	0.031826957 	0.9156847
0.0032397303 	0.0048463519 	0.028033132 	0.8796551
0.0032705162 	-0.0045065613 	0.028398743 	0.85647322
0.0033008765 	-0.01618872 	0.029409892 	0.84253727
0.0033308172 	-0.027976528 	0.029235526 	0.83366803
0.0033603441 	-0.038224825 	0.02748741 	0.82661326
0.0033894627 	-0.04586955 	0.024474496 	0.81945391
0.0034181789 	-0.050371029 	0.020573875 	0.8114364
0.0034464982 	-0.051675585 	0.016006432 	0.80243635
0.003474426 	-0.050435227 	0.0107964 	0.79270891
0.0035019678 	-0.047609916 	0.0049136466 	0.78286773
0.0035291288 	-0.044008303 	-0.0015135053 	0.77362039
0.0035559144 	-0.040184013 	-0.0081851108 	0.76550149
0.0035823298 	-0.036397005 	-0.014715278 	0.75863014
0.0036083801 	-0.032760315 	-0.020739197 	0.75263596
0.0036340702 	-0.029278353 	-0.026000865 	0.74674591
0.0036594053 	-0.025902422 	-0.030370621 	0.7399528
0.0036843901 	-0.022667024 	-0.03387493 	0.73112924
0.0037090296 	-0.019655708 	-0.036673049 	0.71908035
0.0037333285 	-0.016931865 	-0.038983186 	0.7024788
0.0037572915 	-0.014467511 	-0.040933216 	0.67982524
0.0037809233 	-0.012124408 	-0.042360264 	0.64953639
0.0038042285 	-0.0097263963 	-0.0426993 	0.61024246
0.0038272115 	-0.0071857591 	-0.04111607 	0.56120892
0.0038498768 	-0.004599059 	-0.036955447 	0.50266275
0.0038722288 	-0.0022453613 	-0.030284839 	0.43584253
0.0038942718 	-0.00044916435 	-0.022169002 	0.3626979
0.0039160102 	0.00057219644 	-0.014335695 	0.28526997
0.003937448 	0.00080557127 	-0.0082741297 	0.20516355
0.0039585896 	0.00049838918 	-0.0043032378 	0.12351524
0.0039794389 	8.3613187e-05 	-0.0014564743 	0.041230584
0.004 	-4.1333444e-05 	1.4294937e-07 	0.037078727
