0 	-0.012465868 	0.045960947 	1.373707
2.0100503e-05 	-0.012465868 	0.045960947 	1.373707
4.0201005e-05 	-0.012465868 	0.045960947 	1.373707
6.0301508e-05 	0.010016644 	0.045857931 	1.3692712
8.040201e-05 	0.010016644 	0.045857931 	1.3692712
0.00010050251 	0.010016644 	0.045857931 	1.3692712
0.00012060302 	0.015224538 	0.042019827 	1.3643112
0.00014070352 	0.015224538 	0.042019827 	1.3643112
0.00016080402 	0.015224538 	0.042019827 	1.3643112
0.00018090452 	0.016182647 	0.037449994 	1.3589751
0.00020100503 	0.016182647 	0.037449994 	1.3589751
0.00022110553 	0.016182647 	0.037449994 	1.3589751
0.00024120603 	0.015182458 	0.031964632 	1.3535969
0.00026130653 	0.015182458 	0.031964632 	1.3535969
0.00028140704 	0.013057393 	0.0257035 	1.3486072
0.00030150754 	0.013057393 	0.0257035 	1.3486072
0.00032160804 	0.013057393 	0.0257035 	1.3486072
0.00034170854 	0.010373929 	0.019067326 	1.3444172
0.00036180905 	0.010373929 	0.019067326 	1.3444172
0.00038190955 	0.010373929 	0.019067326 	1.3444172
0.00040201005 	0.007642746 	0.012448276 	1.3412922
0.00042211055 	0.007642746 	0.012448276 	1.3412922
0.00044221106 	0.007642746 	0.012448276 	1.3412922
0.00046231156 	0.0053849287 	0.0059566197 	1.3392623
0.00048241206 	0.0053849287 	0.0059566197 	1.3392623
0.00050251256 	0.0041550406 	-0.00062356776 	1.3380038
0.00052261307 	0.0041550406 	-0.00062356776 	1.3380038
0.00054271357 	0.0041550406 	-0.00062356776 	1.3380038
0.00056281407 	0.0045169235 	-0.0075716826 	1.3367886
0.00058291457 	0.0045169235 	-0.0075716826 	1.3367886
0.00060301508 	0.0045169235 	-0.0075716826 	1.3367886
0.00062311558 	0.0069187923 	-0.014876387 	1.334677
0.00064321608 	0.0069187923 	-0.014876387 	1.334677
0.00066331658 	0.0069187923 	-0.014876387 	1.334677
0.00068341709 	0.011436554 	-0.022203408 	1.3309949
0.00070351759 	0.011436554 	-0.022203408 	1.3309949
0.00072361809 	0.017521787 	-0.029000475 	1.3258572
0.00074371859 	0.017521787 	-0.029000475 	1.3258572
0.0007638191 	0.017521787 	-0.029000475 	1.3258572
0.0007839196 	0.024040433 	-0.03474454 	1.3202432
0.0008040201 	0.024040433 	-0.03474454 	1.3202432
0.0008241206 	0.024040433 	-0.03474454 	1.3202432
0.00084422111 	0.029643146 	-0.039157356 	1.3154808
0.00086432161 	0.029643146 	-0.039157356 	1.3154808
0.00088442211 	0.029643146 	-0.039157356 	1.3154808
0.00090452261 	0.033542889 	-0.042331805 	1.312571
0.00092462312 	0.033542889 	-0.042331805 	1.312571
0.00094472362 	0.035304306 	-0.044436933 	1.3119303
0.00096482412 	0.035304306 	-0.044436933 	1.3119303
0.00098492462 	0.035304306 	-0.044436933 	1.3119303
0.0010050251 	0.035563491 	-0.045753555 	1.3138477
0.0010251256 	0.035563491 	-0.045753555 	1.3138477
0.0010452261 	0.035563491 	-0.045753555 	1.3138477
0.0010653266 	0.034231131 	-0.045621053 	1.3184397
0.0010854271 	0.034231131 	-0.045621053 	1.3184397
0.0011055276 	0.022024149 	-0.04479795 	1.3196719
0.0011256281 	0.015144001 	-0.040610792 	1.3246353
0.0011457286 	0.031149936 	-0.04361036 	1.3245634
0.0011658291 	0.031149936 	-0.04361036 	1.3245634
0.0011859296 	0.026827866 	-0.038084418 	1.3303342
0.0012060302 	0.026827866 	-0.038084418 	1.3303342
0.0012261307 	0.026827866 	-0.038084418 	1.3303342
0.0012462312 	0.021982847 	-0.026946264 	1.3336778
0.0012663317 	0.021982847 	-0.026946264 	1.3336778
0.0012864322 	0.021982847 	-0.026946264 	1.3336778
0.0013065327 	0.017075718 	-0.010208315 	1.3333035
0.0013266332 	0.017075718 	-0.010208315 	1.3333035
0.0013467337 	0.017075718 	-0.010208315 	1.3333035
0.0013668342 	0.012347762 	0.0093052419 	1.3292199
0.0013869347 	0.012347762 	0.0093052419 	1.3292199
0.0014070352 	0.012347762 	0.0093052419 	1.3292199
0.0014271357 	0.0081193921 	0.026603916 	1.3227563
0.0014472362 	0.0081193921 	0.026603916 	1.3227563
0.0014673367 	0.0081193921 	0.026603916 	1.3227563
0.0014874372 	0.0042371394 	0.037983485 	1.3158305
0.0015075377 	0.0042371394 	0.037983485 	1.3158305
0.0015276382 	0.00053746471 	0.042363883 	1.3101933
0.0015477387 	0.00053746471 	0.042363883 	1.3101933
0.0015678392 	0.00053746471 	0.042363883 	1.3101933
0.0015879397 	-0.0033262674 	0.040801311 	1.3070368
0.0016080402 	-0.0033262674 	0.040801311 	1.3070368
0.0016281407 	-0.0033262674 	0.040801311 	1.3070368
0.0016482412 	-0.0078752077 	0.035789722 	1.306576
0.0016683417 	-0.0078752077 	0.035789722 	1.306576
0.0016884422 	-0.013498671 	0.030592505 	1.3076553
0.0017085427 	-0.013498671 	0.030592505 	1.3076553
0.0017286432 	-0.013498671 	0.030592505 	1.3076553
0.0017487437 	-0.019791375 	0.02791354 	1.3083097
0.0017688442 	-0.019791375 	0.02791354 	1.3083097
0.0017889447 	-0.019791375 	0.02791354 	1.3083097
0.0018090452 	-0.025488549 	0.028443834 	1.3077079
0.0018291457 	-0.025488549 	0.028443834 	1.3077079
0.0018492462 	-0.02937069 	0.030687194 	1.307191
0.0018693467 	-0.02937069 	0.030687194 	1.307191
0.0018894472 	-0.02937069 	0.030687194 	1.307191
0.0019095477 	-0.030914183 	0.032482985 	1.3086771
0.0019296482 	-0.030914183 	0.032482985 	1.3086771
0.0019497487 	-0.030273522 	0.032598251 	1.3124203
0.0019698492 	-0.030273522 	0.032598251 	1.3124203
0.0019899497 	-0.027913485 	0.030922018 	1.3167318
0.0020100503 	-0.027913485 	0.030922018 	1.3167318
0.0020301508 	-0.027913485 	0.030922018 	1.3167318
0.0020502513 	-0.024319874 	0.0279392 	1.3192855
0.0020703518 	-0.024319874 	0.0279392 	1.3192855
0.0020904523 	-0.019906757 	0.024224017 	1.3183551
0.0021105528 	-0.019906757 	0.024224017 	1.3183551
0.0021306533 	-0.019906757 	0.024224017 	1.3183551
0.0021507538 	-0.015149928 	0.020331987 	1.3131685
0.0021708543 	-0.015149928 	0.020331987 	1.3131685
0.0021909548 	-0.010603822 	0.016884213 	1.3038136
0.0022110553 	-0.010603822 	0.016884213 	1.3038136
0.0022311558 	-0.0066137003 	0.014712143 	1.2911609
0.0022512563 	-0.0066137003 	0.014712143 	1.2911609
0.0022713568 	-0.0032526497 	0.014491868 	1.2769908
0.0022914573 	-0.0032526497 	0.014491868 	1.2769908
0.0023115578 	-0.0032526497 	0.014491868 	1.2769908
0.0023316583 	-0.00042625393 	0.016205546 	1.2641333
0.0023517588 	-0.00042625393 	0.016205546 	1.2641333
0.0023718593 	0.0019873811 	0.019252601 	1.2562609
0.0023919598 	0.0019873811 	0.019252601 	1.2562609
0.0024120603 	0.0039820641 	0.023068669 	1.256558
0.0024321608 	0.0039820641 	0.023068669 	1.256558
0.0024522613 	0.005061277 	0.027326647 	1.2656681
0.0024723618 	0.005061277 	0.027326647 	1.2656681
0.0024924623 	0.004725511 	0.031250485 	1.2810409
0.0025125628 	0.004725511 	0.031250485 	1.2810409
0.0025326633 	0.0030589898 	0.033081016 	1.2984605
0.0025527638 	0.0030589898 	0.033081016 	1.2984605
0.0025728643 	0.000771842 	0.030454855 	1.3138404
0.0025929648 	0.000771842 	0.030454855 	1.3138404
0.0026130653 	-0.0014125555 	0.021738935 	1.3239153
0.0026331658 	-0.0014125555 	0.021738935 	1.3239153
0.0026532663 	-0.0033358674 	0.0068903366 	1.3266905
0.0026733668 	-0.0033358674 	0.0068903366 	1.3266905
0.0026934673 	-0.0055133733 	-0.012435572 	1.3216445
0.0027135678 	-0.0055133733 	-0.012435572 	1.3216445
0.0027336683 	-0.0085993204 	-0.03356501 	1.3092235
0.0027537688 	-0.0085993204 	-0.03356501 	1.3092235
0.0027738693 	-0.012698951 	-0.053938857 	1.2898233
0.0027939698 	-0.012698951 	-0.053938857 	1.2898233
0.0028140704 	-0.017549839 	-0.072423514 	1.2624819
0.0028341709 	-0.017549839 	-0.072423514 	1.2624819
0.0028542714 	-0.022804905 	-0.089466726 	1.2247478
0.0028743719 	-0.0287396 	-0.10565243 	1.1747026
0.0028944724 	-0.0287396 	-0.10565243 	1.1747026
0.0029145729 	-0.036212088 	-0.1200353 	1.113939
0.0029346734 	-0.036212088 	-0.1200353 	1.113939
0.0029547739 	-0.045763359 	-0.13039929 	1.0482266
0.0029748744 	-0.045763359 	-0.13039929 	1.0482266
0.0029949749 	-0.056912362 	-0.13539649 	0.98548321
0.0030150754 	-0.0684782 	-0.13540101 	0.93301137
0.0030351759 	-0.0684782 	-0.13540101 	0.93301137
0.0030552764 	-0.078843901 	-0.13115568 	0.89478788
0.0030753769 	-0.078843901 	-0.13115568 	0.89478788
0.0030954774 	-0.086633587 	-0.12384852 	0.87015664
0.0031155779 	-0.091661773 	-0.11540927 	0.85542542
0.0031356784 	-0.091661773 	-0.11540927 	0.85542542
0.0031557789 	-0.094486757 	-0.10680021 	0.84680459
0.0031758794 	-0.094486757 	-0.10680021 	0.84680459
0.0031959799 	-0.095711438 	-0.097192788 	0.84169665
0.0032160804 	-0.095755762 	-0.08537132 	0.83856844
0.0032361809 	-0.095755762 	-0.08537132 	0.83856844
0.0032562814 	-0.094895345 	-0.071103904 	0.83664424
0.0032763819 	-0.093236708 	-0.054989418 	0.83562909
0.0032964824 	-0.093236708 	-0.054989418 	0.83562909
0.0033165829 	-0.090718991 	-0.037833268 	0.83542502
0.0033366834 	-0.087256903 	-0.020220578 	0.83572976
0.0033567839 	-0.087256903 	-0.020220578 	0.83572976
0.0033768844 	-0.083238218 	-0.0027057977 	0.83578973
0.0033969849 	-0.079048502 	0.013980574 	0.83447278
0.0034170854 	-0.079048502 	0.013980574 	0.83447278
0.0034371859 	-0.074835856 	0.029007661 	0.83064497
0.0034572864 	-0.071021765 	0.041861074 	0.82343387
0.0034773869 	-0.06798544 	0.052855739 	0.81228877
0.0034974874 	-0.06798544 	0.052855739 	0.81228877
0.0035175879 	-0.065692176 	0.062858861 	0.796722
0.0035376884 	-0.063677942 	0.072329535 	0.77593142
0.0035577889 	-0.061221253 	0.080352443 	0.74890419
0.0035778894 	-0.061221253 	0.080352443 	0.74890419
0.0035979899 	-0.057666939 	0.084623177 	0.7152664
0.0036180905 	-0.05271256 	0.082665468 	0.67635793
0.003638191 	-0.046495392 	0.073639702 	0.63526624
0.0036582915 	-0.046495392 	0.073639702 	0.63526624
0.003678392 	-0.039526731 	0.059395465 	0.59557692
0.0036984925 	-0.032516099 	0.043566011 	0.55986484
0.003718593 	-0.026114066 	0.029432448 	0.52869184
0.0037386935 	-0.020716104 	0.018651461 	0.50060871
0.003758794 	-0.01641679 	0.011386729 	0.47309484
0.0037788945 	-0.01641679 	0.011386729 	0.47309484
0.003798995 	-0.013114374 	0.0069898913 	0.44360308
0.0038190955 	-0.010595345 	0.0045625445 	0.41022173
0.003839196 	-0.0086052977 	0.0033118894 	0.37182907
0.0038592965 	-0.0069435822 	0.0026791521 	0.32812012
0.003879397 	-0.0054864911 	0.0023190068 	0.27963937
0.0038994975 	-0.0041699773 	0.0020110297 	0.22775104
0.003919598 	-0.0029571811 	0.0015395537 	0.17443811
0.0039396985 	-0.0018363955 	0.00062077135 	0.12186751
0.003959799 	-0.00085339522 	-0.00087039257 	0.071709444
0.0039798995 	-0.0001292225 	-0.0019119179 	0.024129552
0.004 	-0.0001292225 	-0.0019119179 	0.024129552
