0 	0.13162108 	0.074816062 	1.3469309
2.0100503e-05 	0.13162108 	0.074816062 	1.3469309
4.0201005e-05 	0.13162108 	0.074816062 	1.3469309
6.0301508e-05 	0.089803376 	0.12392003 	1.3496902
8.040201e-05 	0.089803376 	0.12392003 	1.3496902
0.00010050251 	0.089803376 	0.12392003 	1.3496902
0.00012060302 	0.079443009 	0.13290954 	1.3521616
0.00014070352 	0.079443009 	0.13290954 	1.3521616
0.00016080402 	0.079443009 	0.13290954 	1.3521616
0.00018090452 	0.077935863 	0.13598128 	1.3545537
0.00020100503 	0.077935863 	0.13598128 	1.3545537
0.00022110553 	0.077935863 	0.13598128 	1.3545537
0.00024120603 	0.051384248 	0.15111268 	1.3398162
0.00026130653 	0.051384248 	0.15111268 	1.3398162
0.00028140704 	0.06148186 	0.15096994 	1.3407683
0.00030150754 	0.06148186 	0.15096994 	1.3407683
0.00032160804 	0.06148186 	0.15096994 	1.3407683
0.00034170854 	0.071273067 	0.15045583 	1.34215
0.00036180905 	0.071273067 	0.15045583 	1.34215
0.00038190955 	0.071273067 	0.15045583 	1.34215
0.00040201005 	0.09710439 	0.13427742 	1.3656911
0.00042211055 	0.09710439 	0.13427742 	1.3656911
0.00044221106 	0.09710439 	0.13427742 	1.3656911
0.00046231156 	0.10390489 	0.13251541 	1.3682355
0.00048241206 	0.10390489 	0.13251541 	1.3682355
0.00050251256 	0.11015477 	0.13075171 	1.3701177
0.00052261307 	0.11015477 	0.13075171 	1.3701177
0.00054271357 	0.11015477 	0.13075171 	1.3701177
0.00056281407 	0.10487417 	0.14443379 	1.348459
0.00058291457 	0.10487417 	0.14443379 	1.348459
0.00060301508 	0.10487417 	0.14443379 	1.348459
0.00062311558 	0.11020285 	0.14197529 	1.3494602
0.00064321608 	0.11889166 	0.12719573 	1.3716229
0.00066331658 	0.11889166 	0.12719573 	1.3716229
0.00068341709 	0.12083236 	0.12512957 	1.3714059
0.00070351759 	0.12083236 	0.12512957 	1.3714059
0.00072361809 	0.12098863 	0.12279822 	1.3708984
0.00074371859 	0.12098863 	0.12279822 	1.3708984
0.0007638191 	0.12098863 	0.12279822 	1.3708984
0.0007839196 	0.11951538 	0.12009383 	1.3702402
0.0008040201 	0.11951538 	0.12009383 	1.3702402
0.0008241206 	0.11951538 	0.12009383 	1.3702402
0.00084422111 	0.11635478 	0.11725021 	1.3700905
0.00086432161 	0.11635478 	0.11725021 	1.3700905
0.00088442211 	0.11635478 	0.11725021 	1.3700905
0.00090452261 	0.11169399 	0.11457266 	1.3703569
0.00092462312 	0.11254858 	0.12056539 	1.3549285
0.00094472362 	0.10806617 	0.11565853 	1.358961
0.00096482412 	0.10806617 	0.11565853 	1.358961
0.00098492462 	0.10806617 	0.11565853 	1.358961
0.0010050251 	0.10109255 	0.11185298 	1.3636407
0.0010251256 	0.10109255 	0.11185298 	1.3636407
0.0010452261 	0.10109255 	0.11185298 	1.3636407
0.0010653266 	0.091107695 	0.11036882 	1.369166
0.0010854271 	0.091107695 	0.11036882 	1.369166
0.0011055276 	0.091107695 	0.11036882 	1.369166
0.0011256281 	0.077792926 	0.11167337 	1.3744876
0.0011457286 	0.077792926 	0.11167337 	1.3744876
0.0011658291 	0.077792926 	0.11167337 	1.3744876
0.0011859296 	0.060467817 	0.11580573 	1.3822936
0.0012060302 	0.060467817 	0.11580573 	1.3822936
0.0012261307 	0.060467817 	0.11580573 	1.3822936
0.0012462312 	0.040211504 	0.12222625 	1.3973877
0.0012663317 	0.040211504 	0.12222625 	1.3973877
0.0012864322 	0.040211504 	0.12222625 	1.3973877
0.0013065327 	0.018982452 	0.12996922 	1.4080247
0.0013266332 	0.018982452 	0.12996922 	1.4080247
0.0013467337 	0.018982452 	0.12996922 	1.4080247
0.0013668342 	-0.0028863516 	0.13874817 	1.3820706
0.0013869347 	-0.0028863516 	0.13874817 	1.3820706
0.0014070352 	-0.0028863516 	0.13874817 	1.3820706
0.0014271357 	-0.026971398 	0.15084009 	1.3164646
0.0014472362 	-0.026971398 	0.15084009 	1.3164646
0.0014673367 	-0.026971398 	0.15084009 	1.3164646
0.0014874372 	-0.053709667 	0.1650048 	1.2436364
0.0015075377 	-0.053709667 	0.1650048 	1.2436364
0.0015276382 	-0.080663982 	0.16748005 	1.1783155
0.0015477387 	-0.080663982 	0.16748005 	1.1783155
0.0015678392 	-0.080663982 	0.16748005 	1.1783155
0.0015879397 	-0.10451156 	0.14244185 	1.1151903
0.0016080402 	-0.10451156 	0.14244185 	1.1151903
0.0016281407 	-0.10451156 	0.14244185 	1.1151903
0.0016482412 	-0.12307887 	0.092254528 	1.0610123
0.0016683417 	-0.12307887 	0.092254528 	1.0610123
0.0016884422 	-0.13581676 	0.03384262 	1.029935
0.0017085427 	-0.13581676 	0.03384262 	1.029935
0.0017286432 	-0.13581676 	0.03384262 	1.029935
0.0017487437 	-0.14258538 	-0.020856104 	1.0198666
0.0017688442 	-0.14258538 	-0.020856104 	1.0198666
0.0017889447 	-0.14258538 	-0.020856104 	1.0198666
0.0018090452 	-0.14480319 	-0.070045773 	1.0194934
0.0018291457 	-0.14480319 	-0.070045773 	1.0194934
0.0018492462 	-0.14321356 	-0.11191628 	1.0231625
0.0018693467 	-0.14321356 	-0.11191628 	1.0231625
0.0018894472 	-0.14321356 	-0.11191628 	1.0231625
0.0019095477 	-0.1383886 	-0.14119416 	1.0286128
0.0019296482 	-0.1383886 	-0.14119416 	1.0286128
0.0019497487 	-0.13156308 	-0.15304083 	1.0349934
0.0019698492 	-0.13156308 	-0.15304083 	1.0349934
0.0019899497 	-0.12428298 	-0.15031239 	1.0443079
0.0020100503 	-0.12428298 	-0.15031239 	1.0443079
0.0020301508 	-0.12428298 	-0.15031239 	1.0443079
0.0020502513 	-0.11759769 	-0.14503094 	1.0603913
0.0020703518 	-0.11759769 	-0.14503094 	1.0603913
0.0020904523 	-0.11253967 	-0.14720037 	1.0823
0.0021105528 	-0.11253967 	-0.14720037 	1.0823
0.0021306533 	-0.11253967 	-0.14720037 	1.0823
0.0021507538 	-0.1090053 	-0.15515685 	1.1030973
0.0021708543 	-0.1090053 	-0.15515685 	1.1030973
0.0021909548 	-0.10594285 	-0.16349277 	1.1156489
0.0022110553 	-0.10594285 	-0.16349277 	1.1156489
0.0022311558 	-0.10235361 	-0.16918865 	1.1146197
0.0022512563 	-0.10235361 	-0.16918865 	1.1146197
0.0022713568 	-0.096593694 	-0.17021492 	1.0995177
0.0022914573 	-0.096593694 	-0.17021492 	1.0995177
0.0023115578 	-0.096593694 	-0.17021492 	1.0995177
0.0023316583 	-0.087319637 	-0.16589767 	1.0757265
0.0023517588 	-0.087319637 	-0.16589767 	1.0757265
0.0023718593 	-0.075077848 	-0.15816181 	1.0504122
0.0023919598 	-0.075077848 	-0.15816181 	1.0504122
0.0024120603 	-0.062619487 	-0.1511953 	1.0275001
0.0024321608 	-0.062619487 	-0.1511953 	1.0275001
0.0024522613 	-0.053083222 	-0.14922253 	1.0065287
0.0024723618 	-0.053083222 	-0.14922253 	1.0065287
0.0024924623 	-0.047897542 	-0.15319756 	0.98471647
0.0025125628 	-0.047897542 	-0.15319756 	0.98471647
0.0025326633 	-0.046435073 	-0.15967622 	0.96170332
0.0025527638 	-0.046435073 	-0.15967622 	0.96170332
0.0025728643 	-0.047528456 	-0.16279162 	0.94253923
0.0025929648 	-0.047528456 	-0.16279162 	0.94253923
0.0026130653 	-0.050266084 	-0.16001212 	0.93299721
0.0026331658 	-0.050266084 	-0.16001212 	0.93299721
0.0026532663 	-0.054032565 	-0.15428289 	0.93418174
0.0026733668 	-0.054032565 	-0.15428289 	0.93418174
0.0026934673 	-0.058472887 	-0.149443 	0.94231673
0.0027135678 	-0.058472887 	-0.149443 	0.94231673
0.0027336683 	-0.063183901 	-0.14693812 	0.95255585
0.0027537688 	-0.063183901 	-0.14693812 	0.95255585
0.0027738693 	-0.067669544 	-0.14607934 	0.96218322
0.0027939698 	-0.067669544 	-0.14607934 	0.96218322
0.0028140704 	-0.071633886 	-0.14552572 	0.97094334
0.0028341709 	-0.071633886 	-0.14552572 	0.97094334
0.0028542714 	-0.075042113 	-0.14445116 	0.97947684
0.0028743719 	-0.07799853 	-0.1426335 	0.98806339
0.0028944724 	-0.07799853 	-0.1426335 	0.98806339
0.0029145729 	-0.080611437 	-0.13997261 	0.99649657
0.0029346734 	-0.080611437 	-0.13997261 	0.99649657
0.0029547739 	-0.082903375 	-0.13622004 	1.0043467
0.0029748744 	-0.082903375 	-0.13622004 	1.0043467
0.0029949749 	-0.084789781 	-0.13103957 	1.0111458
0.0030150754 	-0.086111165 	-0.12419873 	1.0164895
0.0030351759 	-0.086111165 	-0.12419873 	1.0164895
0.0030552764 	-0.086696069 	-0.11570134 	1.0200627
0.0030753769 	-0.086696069 	-0.11570134 	1.0200627
0.0030954774 	-0.086440848 	-0.10573318 	1.0216464
0.0031155779 	-0.085437463 	-0.094466025 	1.0212016
0.0031356784 	-0.085437463 	-0.094466025 	1.0212016
0.0031557789 	-0.083984141 	-0.081976578 	1.0189876
0.0031758794 	-0.083984141 	-0.081976578 	1.0189876
0.0031959799 	-0.082464525 	-0.068375843 	1.0155529
0.0032160804 	-0.081280596 	-0.053990431 	1.0115871
0.0032361809 	-0.081280596 	-0.053990431 	1.0115871
0.0032562814 	-0.080811427 	-0.039389077 	1.0076892
0.0032763819 	-0.081303226 	-0.025278437 	1.0041581
0.0032964824 	-0.081303226 	-0.025278437 	1.0041581
0.0033165829 	-0.08272657 	-0.012349552 	1.0007825
0.0033366834 	-0.084671504 	-0.0011180018 	0.99687362
0.0033567839 	-0.084671504 	-0.0011180018 	0.99687362
0.0033768844 	-0.086318462 	0.0081350579 	0.99133114
0.0033969849 	-0.086828935 	0.015325745 	0.98299567
0.0034170854 	-0.086828935 	0.015325745 	0.98299567
0.0034371859 	-0.085707592 	0.020437104 	0.97095047
0.0034572864 	-0.08270409 	0.023498456 	0.95474378
0.0034773869 	-0.077828151 	0.024596267 	0.93443092
0.0034974874 	-0.077828151 	0.024596267 	0.93443092
0.0035175879 	-0.071336846 	0.023932301 	0.91042955
0.0035376884 	-0.063653091 	0.021851507 	0.88336594
0.0035577889 	-0.055269228 	0.018797677 	0.85390907
0.0035778894 	-0.055269228 	0.018797677 	0.85390907
0.0035979899 	-0.046680905 	0.015222033 	0.82264043
0.0036180905 	-0.038275754 	0.01149299 	0.78995068
0.003638191 	-0.03036542 	0.0078422942 	0.75606565
0.0036582915 	-0.03036542 	0.0078422942 	0.75606565
0.003678392 	-0.023208507 	0.0043742896 	0.72104589
0.0036984925 	-0.016962625 	0.0011082091 	0.68490868
0.003718593 	-0.011723057 	-0.0019632529 	0.64770186
0.0037386935 	-0.0075251657 	-0.0048149655 	0.60952477
0.003758794 	-0.0043385583 	-0.0073518712 	0.57045506
0.0037788945 	-0.0043385583 	-0.0073518712 	0.57045506
0.003798995 	-0.0020719976 	-0.0094063732 	0.53040365
0.0038190955 	-0.00058728186 	-0.01078674 	0.48894759
0.003839196 	0.0002723365 	-0.01134891 	0.44534215
0.0038592965 	0.00065548106 	-0.011082882 	0.39869078
0.003879397 	0.0007055158 	-0.010129847 	0.34822102
0.0038994975 	0.00056621228 	-0.0087399557 	0.29354457
0.003919598 	0.00036869127 	-0.0071479573 	0.23475805
0.0039396985 	0.00020158084 	-0.0054464862 	0.17227328
0.003959799 	9.2204796e-05 	-0.0035521121 	0.1064054
0.0039798995 	1.735322e-05 	-0.0013161257 	0.036986581
0.004 	1.735322e-05 	-0.0013161257 	0.036986581
