0 	0.001948722 	0.0011550034 	1.2884157
5.5555556e-05 	-0.0056374486 	0.007507883 	1.3019398
0.00011111111 	-0.0037506457 	0.010146241 	1.3117456
0.00016666667 	-0.00057648232 	0.0089879425 	1.3212196
0.00022222222 	0.003134152 	0.004779686 	1.3293831
0.00027777778 	0.0066936668 	-0.0011586176 	1.3356469
0.00033333333 	0.0094736852 	-0.0073169838 	1.3392536
0.00038888889 	0.01104552 	-0.012620625 	1.339327
0.00044444444 	0.01128634 	-0.016748378 	1.335514
0.0005 	0.010307741 	-0.019978326 	1.328492
0.00055555556 	0.0083077036 	-0.022802873 	1.3198441
0.00061111111 	0.0055321976 	-0.025551034 	1.311473
0.00066666667 	0.0022813021 	-0.028165085 	1.3048633
0.00072222222 	-0.0011665549 	-0.030329821 	1.300529
0.00077777778 	-0.0046727229 	-0.031940712 	1.2980112
0.00083333333 	-0.0082955043 	-0.03352991 	1.2964935
0.00088888889 	-0.012023826 	-0.036190305 	1.2954244
0.00094444444 	-0.0155679 	-0.040871368 	1.2946216
0.001 	-0.018581691 	-0.048463215 	1.293924
0.0010617224 	-0.020448348 	-0.058576198 	1.2930235
0.0011225923 	-0.020751606 	-0.069792835 	1.2914869
0.0011826215 	-0.019920974 	-0.08038163 	1.2889324
0.0012418217 	-0.018821625 	-0.089348358 	1.2853099
0.0013002041 	-0.018132841 	-0.095865801 	1.2806204
0.0013577803 	-0.018376152 	-0.09929189 	1.2748298
0.0014145612 	-0.019596417 	-0.099025538 	1.2679712
0.0014705579 	-0.021546307 	-0.094714571 	1.2602377
0.0015257812 	-0.023876898 	-0.086520197 	1.2520319
0.0015802418 	-0.026454771 	-0.075205197 	1.2442254
0.0016339502 	-0.029521645 	-0.062197594 	1.2381733
0.0016869168 	-0.03334488 	-0.049335797 	1.2350718
0.0017391518 	-0.037853686 	-0.038147142 	1.234971
0.0017906654 	-0.042649917 	-0.029074377 	1.2365527
0.0018414676 	-0.04720542 	-0.021511081 	1.2378993
0.0018915681 	-0.051044755 	-0.014572385 	1.2375275
0.0019409766 	-0.053812412 	-0.0078526046 	1.2348653
0.0019897027 	-0.05531129 	-0.0014766529 	1.2301925
0.0020377558 	-0.05548359 	0.0042781114 	1.2243648
0.0020851453 	-0.054357503 	0.0092321422 	1.2184763
0.0021318802 	-0.052044546 	0.013356993 	1.2135124
0.0021779697 	-0.048705803 	0.016719971 	1.2101129
0.0022234225 	-0.044541722 	0.019414173 	1.208456
0.0022682477 	-0.03978072 	0.021514131 	1.208245
0.0023124537 	-0.034710206 	0.023028966 	1.2088052
0.0023560491 	-0.029635334 	0.023877822 	1.209301
0.0023990425 	-0.02483676 	0.023889054 	1.2090131
0.002441442 	-0.020540345 	0.022816074 	1.207572
0.002483256 	-0.01687689 	0.020368898 	1.2049864
0.0025244924 	-0.013919571 	0.016303379 	1.2014857
0.0025651593 	-0.011662837 	0.010565987 	1.1973521
0.0026052645 	-0.010002366 	0.0034511936 	1.1928544
0.0026448158 	-0.0088209156 	-0.004365022 	1.1883206
0.0026838209 	-0.0081093497 	-0.011927658 	1.184146
0.0027222872 	-0.0079110874 	-0.01831525 	1.1806443
0.0027602223 	-0.0081633708 	-0.022877294 	1.1779487
0.0027976334 	-0.0086587127 	-0.025356738 	1.1758029
0.0028345278 	-0.0090346107 	-0.025846378 	1.1734848
0.0028709126 	-0.0088875565 	-0.024705082 	1.1698866
0.002906795 	-0.0078589318 	-0.02244405 	1.1638107
0.0029421817 	-0.0057551607 	-0.019583762 	1.1543911
0.0029770797 	-0.0025895585 	-0.016501587 	1.1414985
0.0030114957 	0.0013752382 	-0.013296045 	1.1258849
0.0030454363 	0.0057816722 	-0.0098053034 	1.1090835
0.0030789082 	0.010202847 	-0.0056899799 	1.0930838
0.0031119178 	0.014090205 	-0.00055892584 	1.0798367
0.0031444715 	0.016897817 	0.005935714 	1.0709662
0.0031765755 	0.018144809 	0.014047066 	1.0675751
0.0032082362 	0.017506766 	0.023925253 	1.0699894
0.0032394596 	0.014900243 	0.035621579 	1.077465
0.0032702517 	0.010698941 	0.049067822 	1.0878754
0.0033006186 	0.0056645839 	0.063974421 	1.0979122
0.003330566 	0.00063862491 	0.079781178 	1.104145
0.0033600998 	-0.0039184145 	0.095652987 	1.1047065
0.0033892257 	-0.0083879847 	0.11070099 	1.1005857
0.0034179494 	-0.013863812 	0.12441165 	1.0952676
0.0034462763 	-0.021572448 	0.13700212 	1.092609
0.003474212 	-0.032202529 	0.14917617 	1.0945026
0.0035017619 	-0.045376281 	0.16112402 	1.1001738
0.0035289312 	-0.059661951 	0.17135498 	1.1070863
0.0035557253 	-0.073054381 	0.17662511 	1.1118844
0.0035821494 	-0.083657187 	0.17319373 	1.1105278
0.0036082084 	-0.090271215 	0.15861012 	1.09817
0.0036339076 	-0.092556598 	0.13322555 	1.0699854
0.0036592518 	-0.090930764 	0.10076649 	1.0232428
0.003684246 	-0.086410024 	0.067133932 	0.95910102
0.003708895 	-0.079985754 	0.037999492 	0.88191059
0.0037332035 	-0.072228289 	0.016658 	0.7971889
0.0037571763 	-0.063532616 	0.0036752417 	0.70997867
0.003780818 	-0.054211522 	-0.0025331105 	0.62439688
0.0038041332 	-0.044733983 	-0.0045557456 	0.54371477
0.0038271264 	-0.035706458 	-0.0047813169 	0.47015841
0.0038498019 	-0.027656334 	-0.0046768518 	0.4044131
0.0038721643 	-0.02069515 	-0.0047450722 	0.34548139
0.0038942179 	-0.014623206 	-0.0050519675 	0.29130964
0.0039159668 	-0.0092463463 	-0.0056062718 	0.23942697
0.0039374154 	-0.0046300918 	-0.0063695729 	0.1866569
0.0039585677 	-0.0012158055 	-0.0066680586 	0.12748821
0.0039794279 	0.00013680416 	-0.0042156293 	0.052061648
0.004 	0.00013680416 	-0.0042156293 	0.052061648
