0 	0.049502194 	-0.019667071 	1.353295
5.5555556e-05 	-0.049209186 	-0.034533288 	1.3368476
0.00011111111 	-0.05500633 	-0.028948941 	1.3338846
0.00016666667 	-0.056623079 	-0.027575323 	1.334707
0.00022222222 	-0.056080256 	-0.028287927 	1.3384277
0.00027777778 	-0.054204354 	-0.030252961 	1.3435677
0.00033333333 	-0.051598496 	-0.032847299 	1.3487255
0.00038888889 	-0.048780584 	-0.035448476 	1.3531197
0.00044444444 	-0.046148513 	-0.037724096 	1.356523
0.0005 	-0.043969344 	-0.039844031 	1.358915
0.00055555556 	-0.04243185 	-0.042127851 	1.360272
0.00061111111 	-0.041670659 	-0.044566698 	1.3603927
0.00066666667 	-0.041716181 	-0.046704865 	1.3587709
0.00072222222 	-0.042491846 	-0.047910913 	1.3549401
0.00077777778 	-0.043886301 	-0.047623352 	1.3491564
0.00083333333 	-0.045799841 	-0.045337076 	1.3425625
0.00088888889 	-0.048190801 	-0.040683415 	1.3365772
0.00094444444 	-0.050936358 	-0.033493484 	1.3320974
0.001 	-0.053445757 	-0.02317089 	1.3289983
0.0010617224 	-0.054940679 	-0.010898127 	1.3269983
0.0011225923 	-0.054869725 	0.0016043738 	1.3245485
0.0011826215 	-0.052575207 	0.012327588 	1.3207239
0.0012418217 	-0.048515868 	0.020745785 	1.3148344
0.0013002041 	-0.043403287 	0.02679385 	1.3063959
0.0013577803 	-0.038170527 	0.030806949 	1.2952282
0.0014145612 	-0.033507021 	0.033135799 	1.2819401
0.0014705579 	-0.029705852 	0.033813453 	1.268027
0.0015257812 	-0.026756215 	0.032566629 	1.2551193
0.0015802418 	-0.02442086 	0.029283214 	1.2442692
0.0016339502 	-0.022475587 	0.024503456 	1.235747
0.0016869168 	-0.020880965 	0.019392601 	1.2292844
0.0017391518 	-0.019604267 	0.015273231 	1.2244083
0.0017906654 	-0.01853996 	0.013212812 	1.220668
0.0018414676 	-0.017597092 	0.013921256 	1.2178436
0.0018915681 	-0.016791698 	0.017808398 	1.2160676
0.0019409766 	-0.016313761 	0.024804072 	1.2158077
0.0019897027 	-0.016534518 	0.034274122 	1.2175214
0.0020377558 	-0.017869312 	0.045142338 	1.2210838
0.0020851453 	-0.020545804 	0.056345489 	1.2253067
0.0021318802 	-0.024426924 	0.067169527 	1.2280611
0.0021779697 	-0.029025469 	0.077156864 	1.2271906
0.0022234225 	-0.033678586 	0.085627558 	1.2216068
0.0022682477 	-0.037795205 	0.091399658 	1.2118679
0.0023124537 	-0.040954641 	0.093287896 	1.2000361
0.0023560491 	-0.04295999 	0.090832601 	1.1890879
0.0023990425 	-0.043908164 	0.084687273 	1.1819646
0.002441442 	-0.044062397 	0.076143159 	1.1802154
0.002483256 	-0.043728951 	0.066447477 	1.1831495
0.0025244924 	-0.043170163 	0.056543104 	1.1885301
0.0025651593 	-0.042592832 	0.047215125 	1.1940557
0.0026052645 	-0.042154942 	0.039155928 	1.1982711
0.0026448158 	-0.041927033 	0.032889164 	1.2006671
0.0026838209 	-0.041861008 	0.028724376 	1.2014308
0.0027222872 	-0.041786864 	0.026846202 	1.2011944
0.0027602223 	-0.041458715 	0.027389438 	1.2006763
0.0027976334 	-0.040543145 	0.030438133 	1.200294
0.0028345278 	-0.038731972 	0.035856853 	1.1999751
0.0028709126 	-0.035668675 	0.043207473 	1.1992549
0.002906795 	-0.031106241 	0.051781035 	1.1975045
0.0029421817 	-0.024991756 	0.060803123 	1.1942514
0.0029770797 	-0.017429649 	0.06960112 	1.1893752
0.0030114957 	-0.0087334467 	0.077626133 	1.1830364
0.0030454363 	0.00060573954 	0.084354 	1.1756142
0.0030789082 	0.010025218 	0.089368326 	1.1677193
0.0031119178 	0.018895048 	0.092303934 	1.1602477
0.0031444715 	0.026510449 	0.093072215 	1.1543831
0.0031765755 	0.032187106 	0.091970129 	1.151563
0.0032082362 	0.035340751 	0.089721241 	1.1531024
0.0032394596 	0.035733983 	0.087283212 	1.1595218
0.0032702517 	0.033697062 	0.085643066 	1.1699525
0.0033006186 	0.030131335 	0.085571104 	1.1821078
0.003330566 	0.026200364 	0.087367498 	1.1931967
0.0033600998 	0.02287777 	0.090684196 	1.2012939
0.0033892257 	0.020652466 	0.094499153 	1.2060441
0.0034179494 	0.019626471 	0.09733455 	1.2079663
0.0034462763 	0.019936467 	0.097684212 	1.2069054
0.003474212 	0.021906726 	0.094531124 	1.2014367
0.0035017619 	0.025614316 	0.087861828 	1.1902511
0.0035289312 	0.030381322 	0.078828146 	1.1738987
0.0035557253 	0.034981503 	0.069163743 	1.1544638
0.0035821494 	0.038533933 	0.060623156 	1.1331102
0.0036082084 	0.041274695 	0.055184956 	1.1078284
0.0036339076 	0.044380441 	0.055014926 	1.074035
0.0036592518 	0.0486505 	0.061807534 	1.0286146
0.003684246 	0.052856138 	0.077148749 	0.97383485
0.003708895 	0.053969169 	0.10234051 	0.9143152
0.0037332035 	0.050007398 	0.13105123 	0.84674342
0.0037571763 	0.042443992 	0.14431609 	0.75920168
0.003780818 	0.034297863 	0.1277725 	0.64921089
0.0038041332 	0.026852424 	0.090324137 	0.53274535
0.0038271264 	0.020175773 	0.052536395 	0.42837976
0.0038498019 	0.01450893 	0.026350183 	0.3428266
0.0038721643 	0.010078439 	0.012355581 	0.27269453
0.0038942179 	0.0067625355 	0.006735837 	0.21181503
0.0039159668 	0.0042399287 	0.0058271471 	0.15555689
0.0039374154 	0.0022437145 	0.0070884426 	0.10192486
0.0039585677 	0.00074081274 	0.0083378143 	0.051981094
0.0039794279 	4.7580458e-06 	0.0061342015 	0.010952462
0.004 	4.7580458e-06 	0.0061342015 	0.010952462
