0 	0.001948722 	0.0011550034 	1.2884157
2.0100503e-05 	-0.0047459706 	0.00095913109 	1.2935208
4.0201005e-05 	-0.0047459706 	0.00095913109 	1.2935208
6.0301508e-05 	-0.0056374486 	0.007507883 	1.3019398
8.040201e-05 	-0.0056374486 	0.007507883 	1.3019398
0.00010050251 	-0.0056374486 	0.007507883 	1.3019398
0.00012060302 	-0.0037506457 	0.010146241 	1.3117456
0.00014070352 	-0.0037506457 	0.010146241 	1.3117456
0.00016080402 	-0.0037506457 	0.010146241 	1.3117456
0.00018090452 	-0.00057648232 	0.0089879425 	1.3212196
0.00020100503 	-0.00057648232 	0.0089879425 	1.3212196
0.00022110553 	-0.00057648232 	0.0089879425 	1.3212196
0.00024120603 	0.003134152 	0.004779686 	1.3293831
0.00026130653 	0.003134152 	0.004779686 	1.3293831
0.00028140704 	0.0066936668 	-0.0011586176 	1.3356469
0.00030150754 	0.0066936668 	-0.0011586176 	1.3356469
0.00032160804 	0.0066936668 	-0.0011586176 	1.3356469
0.00034170854 	0.0094736852 	-0.0073169838 	1.3392536
0.00036180905 	0.0094736852 	-0.0073169838 	1.3392536
0.00038190955 	0.0094736852 	-0.0073169838 	1.3392536
0.00040201005 	0.01104552 	-0.012620625 	1.339327
0.00042211055 	0.01104552 	-0.012620625 	1.339327
0.00044221106 	0.01104552 	-0.012620625 	1.339327
0.00046231156 	0.01128634 	-0.016748378 	1.335514
0.00048241206 	0.01128634 	-0.016748378 	1.335514
0.00050251256 	0.010307741 	-0.019978326 	1.328492
0.00052261307 	0.010307741 	-0.019978326 	1.328492
0.00054271357 	0.010307741 	-0.019978326 	1.328492
0.00056281407 	0.0083077036 	-0.022802873 	1.3198441
0.00058291457 	0.0083077036 	-0.022802873 	1.3198441
0.00060301508 	0.0083077036 	-0.022802873 	1.3198441
0.00062311558 	0.0055321976 	-0.025551034 	1.311473
0.00064321608 	0.0055321976 	-0.025551034 	1.311473
0.00066331658 	0.0055321976 	-0.025551034 	1.311473
0.00068341709 	0.0022813021 	-0.028165085 	1.3048633
0.00070351759 	0.0022813021 	-0.028165085 	1.3048633
0.00072361809 	-0.0011665549 	-0.030329821 	1.300529
0.00074371859 	-0.0011665549 	-0.030329821 	1.300529
0.0007638191 	-0.0011665549 	-0.030329821 	1.300529
0.0007839196 	-0.0046727229 	-0.031940712 	1.2980112
0.0008040201 	-0.0046727229 	-0.031940712 	1.2980112
0.0008241206 	-0.0046727229 	-0.031940712 	1.2980112
0.00084422111 	-0.0082955043 	-0.03352991 	1.2964935
0.00086432161 	-0.0082955043 	-0.03352991 	1.2964935
0.00088442211 	-0.0082955043 	-0.03352991 	1.2964935
0.00090452261 	-0.012023826 	-0.036190305 	1.2954244
0.00092462312 	-0.012023826 	-0.036190305 	1.2954244
0.00094472362 	-0.0155679 	-0.040871368 	1.2946216
0.00096482412 	-0.0155679 	-0.040871368 	1.2946216
0.00098492462 	-0.0155679 	-0.040871368 	1.2946216
0.0010050251 	-0.015827529 	-0.052118698 	1.3013255
0.0010251256 	-0.015827529 	-0.052118698 	1.3013255
0.0010452261 	-0.015827529 	-0.052118698 	1.3013255
0.0010653266 	-0.019874045 	-0.063023021 	1.3011345
0.0010854271 	-0.019874045 	-0.063023021 	1.3011345
0.0011055276 	-0.019874045 	-0.063023021 	1.3011345
0.0011256281 	-0.020751606 	-0.069792835 	1.2914869
0.0011457286 	-0.020751606 	-0.069792835 	1.2914869
0.0011658291 	-0.023035454 	-0.074754317 	1.299769
0.0011859296 	-0.025084957 	-0.085333201 	1.2966396
0.0012060302 	-0.025084957 	-0.085333201 	1.2966396
0.0012261307 	-0.025084957 	-0.085333201 	1.2966396
0.0012462312 	-0.026645831 	-0.093520144 	1.2916714
0.0012663317 	-0.018821625 	-0.089348358 	1.2853099
0.0012864322 	-0.018821625 	-0.089348358 	1.2853099
0.0013065327 	-0.018132841 	-0.095865801 	1.2806204
0.0013266332 	-0.018132841 	-0.095865801 	1.2806204
0.0013467337 	-0.018132841 	-0.095865801 	1.2806204
0.0013668342 	-0.018376152 	-0.09929189 	1.2748298
0.0013869347 	-0.018376152 	-0.09929189 	1.2748298
0.0014070352 	-0.018376152 	-0.09929189 	1.2748298
0.0014271357 	-0.019596417 	-0.099025538 	1.2679712
0.0014472362 	-0.031219366 	-0.098391691 	1.268928
0.0014673367 	-0.031219366 	-0.098391691 	1.268928
0.0014874372 	-0.032495182 	-0.093122667 	1.2599712
0.0015075377 	-0.021546307 	-0.094714571 	1.2602377
0.0015276382 	-0.023876898 	-0.086520197 	1.2520319
0.0015477387 	-0.023876898 	-0.086520197 	1.2520319
0.0015678392 	-0.023876898 	-0.086520197 	1.2520319
0.0015879397 	-0.026454771 	-0.075205197 	1.2442254
0.0016080402 	-0.026454771 	-0.075205197 	1.2442254
0.0016281407 	-0.026454771 	-0.075205197 	1.2442254
0.0016482412 	-0.029521645 	-0.062197594 	1.2381733
0.0016683417 	-0.029521645 	-0.062197594 	1.2381733
0.0016884422 	-0.03334488 	-0.049335797 	1.2350718
0.0017085427 	-0.03334488 	-0.049335797 	1.2350718
0.0017286432 	-0.03334488 	-0.049335797 	1.2350718
0.0017487437 	-0.037853686 	-0.038147142 	1.234971
0.0017688442 	-0.037853686 	-0.038147142 	1.234971
0.0017889447 	-0.037853686 	-0.038147142 	1.234971
0.0018090452 	-0.042649917 	-0.029074377 	1.2365527
0.0018291457 	-0.042649917 	-0.029074377 	1.2365527
0.0018492462 	-0.04720542 	-0.021511081 	1.2378993
0.0018693467 	-0.04720542 	-0.021511081 	1.2378993
0.0018894472 	-0.04720542 	-0.021511081 	1.2378993
0.0019095477 	-0.051044755 	-0.014572385 	1.2375275
0.0019296482 	-0.051044755 	-0.014572385 	1.2375275
0.0019497487 	-0.053812412 	-0.0078526046 	1.2348653
0.0019698492 	-0.053812412 	-0.0078526046 	1.2348653
0.0019899497 	-0.05531129 	-0.0014766529 	1.2301925
0.0020100503 	-0.05531129 	-0.0014766529 	1.2301925
0.0020301508 	-0.05531129 	-0.0014766529 	1.2301925
0.0020502513 	-0.05548359 	0.0042781114 	1.2243648
0.0020703518 	-0.05548359 	0.0042781114 	1.2243648
0.0020904523 	-0.054357503 	0.0092321422 	1.2184763
0.0021105528 	-0.054357503 	0.0092321422 	1.2184763
0.0021306533 	-0.054357503 	0.0092321422 	1.2184763
0.0021507538 	-0.052044546 	0.013356993 	1.2135124
0.0021708543 	-0.052044546 	0.013356993 	1.2135124
0.0021909548 	-0.048705803 	0.016719971 	1.2101129
0.0022110553 	-0.048705803 	0.016719971 	1.2101129
0.0022311558 	-0.044541722 	0.019414173 	1.208456
0.0022512563 	-0.044541722 	0.019414173 	1.208456
0.0022713568 	-0.03978072 	0.021514131 	1.208245
0.0022914573 	-0.03978072 	0.021514131 	1.208245
0.0023115578 	-0.03978072 	0.021514131 	1.208245
0.0023316583 	-0.034710206 	0.023028966 	1.2088052
0.0023517588 	-0.034710206 	0.023028966 	1.2088052
0.0023718593 	-0.029635334 	0.023877822 	1.209301
0.0023919598 	-0.029635334 	0.023877822 	1.209301
0.0024120603 	-0.02483676 	0.023889054 	1.2090131
0.0024321608 	-0.02483676 	0.023889054 	1.2090131
0.0024522613 	-0.020540345 	0.022816074 	1.207572
0.0024723618 	-0.020540345 	0.022816074 	1.207572
0.0024924623 	-0.01687689 	0.020368898 	1.2049864
0.0025125628 	-0.01687689 	0.020368898 	1.2049864
0.0025326633 	-0.013919571 	0.016303379 	1.2014857
0.0025527638 	-0.013919571 	0.016303379 	1.2014857
0.0025728643 	-0.011662837 	0.010565987 	1.1973521
0.0025929648 	-0.011662837 	0.010565987 	1.1973521
0.0026130653 	-0.010002366 	0.0034511936 	1.1928544
0.0026331658 	-0.010002366 	0.0034511936 	1.1928544
0.0026532663 	-0.0088209156 	-0.004365022 	1.1883206
0.0026733668 	-0.0088209156 	-0.004365022 	1.1883206
0.0026934673 	-0.0081093497 	-0.011927658 	1.184146
0.0027135678 	-0.0081093497 	-0.011927658 	1.184146
0.0027336683 	-0.0079110874 	-0.01831525 	1.1806443
0.0027537688 	-0.0079110874 	-0.01831525 	1.1806443
0.0027738693 	-0.0081633708 	-0.022877294 	1.1779487
0.0027939698 	-0.0081633708 	-0.022877294 	1.1779487
0.0028140704 	-0.0086587127 	-0.025356738 	1.1758029
0.0028341709 	-0.0086587127 	-0.025356738 	1.1758029
0.0028542714 	-0.0090346107 	-0.025846378 	1.1734848
0.0028743719 	-0.0088875565 	-0.024705082 	1.1698866
0.0028944724 	-0.0088875565 	-0.024705082 	1.1698866
0.0029145729 	-0.0078589318 	-0.02244405 	1.1638107
0.0029346734 	-0.0078589318 	-0.02244405 	1.1638107
0.0029547739 	-0.0057551607 	-0.019583762 	1.1543911
0.0029748744 	-0.0057551607 	-0.019583762 	1.1543911
0.0029949749 	-0.0025895585 	-0.016501587 	1.1414985
0.0030150754 	0.0013752382 	-0.013296045 	1.1258849
0.0030351759 	0.0013752382 	-0.013296045 	1.1258849
0.0030552764 	0.0057816722 	-0.0098053034 	1.1090835
0.0030753769 	0.0057816722 	-0.0098053034 	1.1090835
0.0030954774 	0.010202847 	-0.0056899799 	1.0930838
0.0031155779 	0.014090205 	-0.00055892584 	1.0798367
0.0031356784 	0.014090205 	-0.00055892584 	1.0798367
0.0031557789 	0.016897817 	0.005935714 	1.0709662
0.0031758794 	0.016897817 	0.005935714 	1.0709662
0.0031959799 	0.018144809 	0.014047066 	1.0675751
0.0032160804 	0.017506766 	0.023925253 	1.0699894
0.0032361809 	0.017506766 	0.023925253 	1.0699894
0.0032562814 	0.014900243 	0.035621579 	1.077465
0.0032763819 	0.010698941 	0.049067822 	1.0878754
0.0032964824 	0.010698941 	0.049067822 	1.0878754
0.0033165829 	0.0056645839 	0.063974421 	1.0979122
0.0033366834 	0.00063862491 	0.079781178 	1.104145
0.0033567839 	0.00063862491 	0.079781178 	1.104145
0.0033768844 	-0.0039184145 	0.095652987 	1.1047065
0.0033969849 	-0.0083879847 	0.11070099 	1.1005857
0.0034170854 	-0.0083879847 	0.11070099 	1.1005857
0.0034371859 	-0.013863812 	0.12441165 	1.0952676
0.0034572864 	-0.021572448 	0.13700212 	1.092609
0.0034773869 	-0.032202529 	0.14917617 	1.0945026
0.0034974874 	-0.032202529 	0.14917617 	1.0945026
0.0035175879 	-0.045376281 	0.16112402 	1.1001738
0.0035376884 	-0.059661951 	0.17135498 	1.1070863
0.0035577889 	-0.073054381 	0.17662511 	1.1118844
0.0035778894 	-0.073054381 	0.17662511 	1.1118844
0.0035979899 	-0.083657187 	0.17319373 	1.1105278
0.0036180905 	-0.090271215 	0.15861012 	1.09817
0.003638191 	-0.092556598 	0.13322555 	1.0699854
0.0036582915 	-0.092556598 	0.13322555 	1.0699854
0.003678392 	-0.090930764 	0.10076649 	1.0232428
0.0036984925 	-0.086410024 	0.067133932 	0.95910102
0.003718593 	-0.079985754 	0.037999492 	0.88191059
0.0037386935 	-0.072228289 	0.016658 	0.7971889
0.003758794 	-0.063532616 	0.0036752417 	0.70997867
0.0037788945 	-0.063532616 	0.0036752417 	0.70997867
0.003798995 	-0.054211522 	-0.0025331105 	0.62439688
0.0038190955 	-0.044733983 	-0.0045557456 	0.54371477
0.003839196 	-0.035706458 	-0.0047813169 	0.47015841
0.0038592965 	-0.027656334 	-0.0046768518 	0.4044131
0.003879397 	-0.02069515 	-0.0047450722 	0.34548139
0.0038994975 	-0.014623206 	-0.0050519675 	0.29130964
0.003919598 	-0.0092463463 	-0.0056062718 	0.23942697
0.0039396985 	-0.0046300918 	-0.0063695729 	0.1866569
0.003959799 	-0.0012158055 	-0.0066680586 	0.12748821
0.0039798995 	0.00013680416 	-0.0042156293 	0.052061648
0.004 	0.00013680416 	-0.0042156293 	0.052061648
