0 	0.049502194 	-0.019667071 	1.353295
5.5555625e-05 	0.03683165 	-0.046082963 	1.3507621
0.00011111111 	0.030022411 	-0.056747399 	1.3478661
0.00016666667 	0.023316154 	-0.061770336 	1.3470186
0.00022222222 	0.01530013 	-0.060570424 	1.3508771
0.00027777778 	0.0066504145 	-0.055076808 	1.3592698
0.00033333333 	-0.0011556794 	-0.051627841 	1.3685258
0.00038888889 	-0.0075378 	-0.055843992 	1.3752835
0.00044444444 	-0.013117533 	-0.06661227 	1.3797507
0.0005 	-0.019423855 	-0.077520013 	1.3809157
0.00055555556 	-0.027871222 	-0.082664814 	1.3751587
0.00061111111 	-0.03810015 	-0.080849476 	1.3635176
0.00066666667 	-0.048351479 	-0.074830121 	1.3524245
0.00072222222 	-0.057067088 	-0.067590917 	1.3452817
0.00077777778 	-0.063766653 	-0.060386085 	1.3402707
0.00083333333 	-0.068932686 	-0.054015742 	1.3357653
0.00088888889 	-0.073252489 	-0.049799081 	1.3323511
0.00094444444 	-0.077512226 	-0.047828434 	1.3304045
0.001 	-0.083117685 	-0.045818139 	1.3297438
0.0010617199 	-0.09048622 	-0.040228786 	1.3320524
0.0011225874 	-0.098351339 	-0.029840185 	1.3393806
0.0011826143 	-0.10521848 	-0.016450219 	1.3505859
0.0012418122 	-0.11068883 	-0.00090789473 	1.3616607
0.0013001926 	-0.11431422 	0.015791064 	1.3706765
0.0013577668 	-0.11572444 	0.031836973 	1.3774006
0.0014145458 	-0.11439027 	0.045663636 	1.3814125
0.0014705407 	-0.1099478 	0.056263822 	1.3824611
0.0015257623 	-0.10267136 	0.062903615 	1.3807615
0.0015802213 	-0.09335724 	0.065368596 	1.3767652
0.0016339282 	-0.082961371 	0.064152533 	1.3710085
0.0016868934 	-0.07213935 	0.060244172 	1.3639901
0.0017391271 	-0.061096491 	0.054727049 	1.3561998
0.0017906395 	-0.049738444 	0.048558413 	1.3481459
0.0018414404 	-0.037846371 	0.042507933 	1.340345
0.0018915398 	-0.025258399 	0.037135113 	1.3332806
0.0019409473 	-0.012002405 	0.032809137 	1.3273305
0.0019896725 	0.0016782108 	0.029749257 	1.3227109
0.0020377248 	0.015392192 	0.027987859 	1.3194759
0.0020851134 	0.028632376 	0.027433222 	1.3175291
0.0021318476 	0.040862397 	0.027927319 	1.3166513
0.0021779364 	0.051612035 	0.029250711 	1.3165449
0.0022233887 	0.060479994 	0.031148883 	1.3168262
0.0022682133 	0.067159349 	0.033378076 	1.3170929
0.0023124189 	0.071502125 	0.035745922 	1.317018
0.0023560139 	0.073520464 	0.038155914 	1.3164555
0.0023990069 	0.07339557 	0.040648023 	1.3155864
0.0024414062 	0.071525658 	0.043431659 	1.3149111
0.0024832199 	0.068481085 	0.046839936 	1.3150057
0.0025244562 	0.064946764 	0.051240217 	1.3160248
0.002565123 	0.061642544 	0.056967833 	1.3172327
0.0026052281 	0.059208747 	0.064219329 	1.3168074
0.0026447794 	0.058057074 	0.072938934 	1.3122091
0.0026837845 	0.058255622 	0.082746384 	1.3010337
0.0027222509 	0.059501832 	0.092955584 	1.282109
0.0027601861 	0.061200111 	0.10268605 	1.2562593
0.0027975974 	0.062606071 	0.11104626 	1.2263084
0.002834492 	0.063072586 	0.11735494 	1.1961652
0.0028708772 	0.06238567 	0.12132936 	1.1693934
0.0029067598 	0.060895978 	0.12298759 	1.1479714
0.0029421469 	0.059290863 	0.12241863 	1.1319636
0.0029770452 	0.058149352 	0.11966883 	1.1202962
0.0030114616 	0.057578938 	0.11483089 	1.1119218
0.0030454028 	0.057246349 	0.10820817 	1.1064811
0.0030788752 	0.056681569 	0.10043764 	1.1042264
0.0031118853 	0.055598045 	0.092453818 	1.1056161
0.0031444395 	0.054078493 	0.085197113 	1.1107644
0.0031765442 	0.052528326 	0.079218051 	1.1191162
0.0032082055 	0.051438642 	0.074422291 	1.1294221
0.0032394295 	0.05118675 	0.070203089 	1.1400924
0.0032702223 	0.051945809 	0.065793786 	1.1495954
0.0033005899 	0.053727709 	0.060544696 	1.1567686
0.0033305381 	0.056449322 	0.054092825 	1.1608871
0.0033600727 	0.059975577 	0.046443121 	1.1616108
0.0033891994 	0.064126892 	0.037975294 	1.1589127
0.0034179239 	0.068495014 	0.029417456 	1.1530731
0.0034462517 	0.072639852 	0.021567272 	1.1446559
0.0034741882 	0.076161237 	0.015173498 	1.1346151
0.003501739 	0.078607034 	0.010507852 	1.1241951
0.0035289093 	0.079679983 	0.0070312119 	1.1144555
0.0035557043 	0.079389847 	0.0038585267 	1.1055881
0.0035821293 	0.078122309 	0.00065759845 	1.0964253
0.0036081894 	0.07626631 	-0.0021220016 	1.084918
0.0036338895 	0.073422208 	-0.0039133048 	1.0710281
0.0036592348 	0.067843578 	-0.0043717125 	1.0611357
0.00368423 	0.057002134 	-0.0028813985 	1.0667374
0.00370888 	0.040382835 	0.0010897358 	1.0899848
0.0037331896 	0.021921696 	0.0057507544 	1.1066773
0.0037571635 	0.0082579209 	0.005649262 	1.0744393
0.0037808063 	0.0034493998 	-0.0046141952 	0.96833891
0.0038041226 	0.0053156988 	-0.023043317 	0.80814198
0.0038271169 	0.0083297266 	-0.039853122 	0.642826
0.0038497936 	0.0091878271 	-0.04759722 	0.5075164
0.0038721572 	0.0081194625 	-0.047133801 	0.40513489
0.0038942119 	0.0065669452 	-0.042802013 	0.32254416
0.003915962 	0.005100984 	-0.036997081 	0.24848387
0.0039374118 	0.0035738514 	-0.029795068 	0.17734554
0.0039585653 	0.0019334693 	-0.020297101 	0.10675567
0.0039794267 	0.00038165256 	-0.0076129986 	0.035717391
0.004 	0.00038165256 	-0.0076129986 	0.035717391
