0 	-0.03220213 	-0.020559589 	1.0348081
2.0100503e-05 	-0.03220213 	-0.020559589 	1.0348081
4.0201005e-05 	-0.03220213 	-0.020559589 	1.0348081
6.0301508e-05 	-0.016779363 	-0.032099042 	1.0342351
8.040201e-05 	-0.016779363 	-0.032099042 	1.0342351
0.00010050251 	-0.016779363 	-0.032099042 	1.0342351
0.00012060302 	-0.010782409 	-0.033061462 	1.0338412
0.00014070352 	-0.010782409 	-0.033061462 	1.0338412
0.00016080402 	-0.010782409 	-0.033061462 	1.0338412
0.00018090452 	-0.0078208085 	-0.032789831 	1.0336176
0.00020100503 	-0.0078208085 	-0.032789831 	1.0336176
0.00022110553 	-0.0078208085 	-0.032789831 	1.0336176
0.00024120603 	-0.0062990138 	-0.032359143 	1.0333773
0.00026130653 	-0.0062990138 	-0.032359143 	1.0333773
0.00028140704 	-0.0056321501 	-0.032108819 	1.0327974
0.00030150754 	-0.0056321501 	-0.032108819 	1.0327974
0.00032160804 	-0.0056321501 	-0.032108819 	1.0327974
0.00034170854 	-0.0055331283 	-0.032262213 	1.0315078
0.00036180905 	-0.0055331283 	-0.032262213 	1.0315078
0.00038190955 	-0.0055331283 	-0.032262213 	1.0315078
0.00040201005 	-0.0058385913 	-0.032973846 	1.0291998
0.00042211055 	-0.0058385913 	-0.032973846 	1.0291998
0.00044221106 	-0.0058385913 	-0.032973846 	1.0291998
0.00046231156 	-0.0064472614 	-0.034267776 	1.0257229
0.00048241206 	-0.0064472614 	-0.034267776 	1.0257229
0.00050251256 	-0.0072802521 	-0.03598514 	1.0211361
0.00052261307 	-0.0072802521 	-0.03598514 	1.0211361
0.00054271357 	-0.0072802521 	-0.03598514 	1.0211361
0.00056281407 	-0.008247371 	-0.037790742 	1.0156942
0.00058291457 	-0.008247371 	-0.037790742 	1.0156942
0.00060301508 	-0.008247371 	-0.037790742 	1.0156942
0.00062311558 	-0.0092605397 	-0.039263855 	1.0098052
0.00064321608 	-0.0092605397 	-0.039263855 	1.0098052
0.00066331658 	-0.0092605397 	-0.039263855 	1.0098052
0.00068341709 	-0.010260084 	-0.040024518 	1.0039705
0.00070351759 	-0.010260084 	-0.040024518 	1.0039705
0.00072361809 	-0.011221398 	-0.039840613 	0.99868951
0.00074371859 	-0.011221398 	-0.039840613 	0.99868951
0.0007638191 	-0.011221398 	-0.039840613 	0.99868951
0.0007839196 	-0.012156172 	-0.038659913 	0.99433699
0.0008040201 	-0.012156172 	-0.038659913 	0.99433699
0.0008241206 	-0.012156172 	-0.038659913 	0.99433699
0.00084422111 	-0.01308997 	-0.036565227 	0.9910607
0.00086432161 	-0.01308997 	-0.036565227 	0.9910607
0.00088442211 	-0.01308997 	-0.036565227 	0.9910607
0.00090452261 	-0.014033833 	-0.033705407 	0.98876906
0.00092462312 	-0.014033833 	-0.033705407 	0.98876906
0.00094472362 	-0.014977471 	-0.030249487 	0.98721848
0.00096482412 	-0.014977471 	-0.030249487 	0.98721848
0.00098492462 	-0.014977471 	-0.030249487 	0.98721848
0.0010050251 	-0.013541505 	-0.026488301 	0.99128043
0.0010251256 	-0.015768728 	-0.02616492 	0.98600072
0.0010452261 	-0.015768728 	-0.02616492 	0.98600072
0.0010653266 	-0.016289596 	-0.021645742 	0.98469824
0.0010854271 	-0.016289596 	-0.021645742 	0.98469824
0.0011055276 	-0.014101069 	-0.021722612 	0.99218232
0.0011256281 	-0.014128022 	-0.016936854 	0.99273343
0.0011457286 	-0.014128022 	-0.016936854 	0.99273343
0.0011658291 	-0.016237598 	-0.01729999 	0.98295587
0.0011859296 	-0.015500641 	-0.013479033 	0.98036253
0.0012060302 	-0.015500641 	-0.013479033 	0.98036253
0.0012261307 	-0.015500641 	-0.013479033 	0.98036253
0.0012462312 	-0.014076185 	-0.010454438 	0.97663745
0.0012663317 	-0.014076185 	-0.010454438 	0.97663745
0.0012864322 	-0.011902061 	-0.0084851273 	0.9912143
0.0013065327 	-0.0095830175 	-0.0051932334 	0.98852206
0.0013266332 	-0.0095830175 	-0.0051932334 	0.98852206
0.0013467337 	-0.0095830175 	-0.0051932334 	0.98852206
0.0013668342 	-0.0065255438 	-0.0026291602 	0.98441308
0.0013869347 	-0.0065255438 	-0.0026291602 	0.98441308
0.0014070352 	-0.0065255438 	-0.0026291602 	0.98441308
0.0014271357 	-0.0028467997 	-0.00075907407 	0.97909508
0.0014472362 	-0.0028467997 	-0.00075907407 	0.97909508
0.0014673367 	-0.0028467997 	-0.00075907407 	0.97909508
0.0014874372 	0.0012900532 	0.00059322876 	0.97298133
0.0015075377 	0.0012900532 	0.00059322876 	0.97298133
0.0015276382 	0.0056877105 	0.0017822434 	0.96655875
0.0015477387 	0.0056877105 	0.0017822434 	0.96655875
0.0015678392 	0.0056877105 	0.0017822434 	0.96655875
0.0015879397 	0.010159218 	0.00336199 	0.96018733
0.0016080402 	0.010159218 	0.00336199 	0.96018733
0.0016281407 	0.010159218 	0.00336199 	0.96018733
0.0016482412 	0.014603182 	0.005973074 	0.9539888
0.0016683417 	0.014603182 	0.005973074 	0.9539888
0.0016884422 	0.018950415 	0.01013616 	0.94798389
0.0017085427 	0.018950415 	0.01013616 	0.94798389
0.0017286432 	0.018950415 	0.01013616 	0.94798389
0.0017487437 	0.023056611 	0.016149072 	0.94228228
0.0017688442 	0.023056611 	0.016149072 	0.94228228
0.0017889447 	0.023056611 	0.016149072 	0.94228228
0.0018090452 	0.026712245 	0.024103317 	0.93703433
0.0018291457 	0.026712245 	0.024103317 	0.93703433
0.0018492462 	0.029729336 	0.033918645 	0.93212771
0.0018693467 	0.029729336 	0.033918645 	0.93212771
0.0018894472 	0.029729336 	0.033918645 	0.93212771
0.0019095477 	0.032082451 	0.045250376 	0.92709935
0.0019296482 	0.032082451 	0.045250376 	0.92709935
0.0019497487 	0.0339738 	0.057277717 	0.92141631
0.0019698492 	0.0339738 	0.057277717 	0.92141631
0.0019899497 	0.035662891 	0.068716706 	0.91494031
0.0020100503 	0.035662891 	0.068716706 	0.91494031
0.0020301508 	0.035662891 	0.068716706 	0.91494031
0.0020502513 	0.037227594 	0.078284915 	0.90814582
0.0020703518 	0.037227594 	0.078284915 	0.90814582
0.0020904523 	0.038451759 	0.085311068 	0.90180182
0.0021105528 	0.038451759 	0.085311068 	0.90180182
0.0021306533 	0.038451759 	0.085311068 	0.90180182
0.0021507538 	0.038982961 	0.089974145 	0.8965481
0.0021708543 	0.038982961 	0.089974145 	0.8965481
0.0021909548 	0.038574752 	0.09294678 	0.89262827
0.0022110553 	0.038574752 	0.09294678 	0.89262827
0.0022311558 	0.037298583 	0.094840641 	0.88988127
0.0022512563 	0.037298583 	0.094840641 	0.88988127
0.0022713568 	0.035512684 	0.095886457 	0.88785518
0.0022914573 	0.035512684 	0.095886457 	0.88785518
0.0023115578 	0.035512684 	0.095886457 	0.88785518
0.0023316583 	0.033652982 	0.095974054 	0.88603749
0.0023517588 	0.033652982 	0.095974054 	0.88603749
0.0023718593 	0.031989844 	0.094909004 	0.8840398
0.0023919598 	0.031989844 	0.094909004 	0.8840398
0.0024120603 	0.030530139 	0.092585791 	0.8816217
0.0024321608 	0.030530139 	0.092585791 	0.8816217
0.0024522613 	0.029001608 	0.089010157 	0.87869198
0.0024723618 	0.029001608 	0.089010157 	0.87869198
0.0024924623 	0.026814985 	0.084333824 	0.87542548
0.0025125628 	0.026814985 	0.084333824 	0.87542548
0.0025326633 	0.022911562 	0.078974986 	0.8727965
0.0025527638 	0.022911562 	0.078974986 	0.8727965
0.0025728643 	0.015923525 	0.073753583 	0.87270043
0.0025929648 	0.015923525 	0.073753583 	0.87270043
0.0026130653 	0.0048827919 	0.069812614 	0.87656159
0.0026331658 	0.0048827919 	0.069812614 	0.87656159
0.0026532663 	-0.0097617391 	0.067745602 	0.88222279
0.0026733668 	-0.0097617391 	0.067745602 	0.88222279
0.0026934673 	-0.02529211 	0.066495636 	0.8822295
0.0027135678 	-0.02529211 	0.066495636 	0.8822295
0.0027336683 	-0.037472259 	0.062832978 	0.86656332
0.0027537688 	-0.037472259 	0.062832978 	0.86656332
0.0027738693 	-0.043068639 	0.053021839 	0.82916828
0.0027939698 	-0.043068639 	0.053021839 	0.82916828
0.0028140704 	-0.042110518 	0.035766283 	0.77366515
0.0028341709 	-0.042110518 	0.035766283 	0.77366515
0.0028542714 	-0.038069443 	0.014508325 	0.71323394
0.0028743719 	-0.035809322 	-0.0044978927 	0.66319248
0.0028944724 	-0.035809322 	-0.0044978927 	0.66319248
0.0029145729 	-0.038190061 	-0.016779661 	0.63203741
0.0029346734 	-0.038190061 	-0.016779661 	0.63203741
0.0029547739 	-0.044866056 	-0.021718357 	0.61926125
0.0029748744 	-0.044866056 	-0.021718357 	0.61926125
0.0029949749 	-0.053880401 	-0.021591779 	0.61872132
0.0030150754 	-0.063196203 	-0.019329836 	0.62292622
0.0030351759 	-0.063196203 	-0.019329836 	0.62292622
0.0030552764 	-0.07152163 	-0.01718082 	0.62607976
0.0030753769 	-0.07152163 	-0.01718082 	0.62607976
0.0030954774 	-0.078294168 	-0.016294889 	0.62521225
0.0031155779 	-0.083485722 	-0.016739952 	0.61998314
0.0031356784 	-0.083485722 	-0.016739952 	0.61998314
0.0031557789 	-0.087342704 	-0.017852966 	0.61166812
0.0031758794 	-0.087342704 	-0.017852966 	0.61166812
0.0031959799 	-0.090176148 	-0.018784079 	0.60195626
0.0032160804 	-0.092225161 	-0.018920788 	0.59212011
0.0032361809 	-0.092225161 	-0.018920788 	0.59212011
0.0032562814 	-0.093611349 	-0.018019867 	0.5827614
0.0032763819 	-0.094357243 	-0.016129035 	0.57395778
0.0032964824 	-0.094357243 	-0.016129035 	0.57395778
0.0033165829 	-0.094429813 	-0.013460738 	0.56549876
0.0033366834 	-0.093774844 	-0.010299573 	0.55705098
0.0033567839 	-0.093774844 	-0.010299573 	0.55705098
0.0033768844 	-0.092336228 	-0.0069469624 	0.54822747
0.0033969849 	-0.090060321 	-0.0036876362 	0.53861192
0.0034170854 	-0.090060321 	-0.0036876362 	0.53861192
0.0034371859 	-0.086900297 	-0.00077129744 	0.52775805
0.0034572864 	-0.082903181 	0.0016132674 	0.51535297
0.0034773869 	-0.07815351 	0.00332248 	0.50121441
0.0034974874 	-0.07815351 	0.00332248 	0.50121441
0.0035175879 	-0.072696587 	0.0042764849 	0.48528929
0.0035376884 	-0.06666668 	0.0044560395 	0.46772847
0.0035577889 	-0.060266977 	0.0039179071 	0.44886556
0.0035778894 	-0.060266977 	0.0039179071 	0.44886556
0.0035979899 	-0.053730912 	0.0027942042 	0.42914071
0.0036180905 	-0.047277532 	0.0012742614 	0.40898704
0.003638191 	-0.041076652 	-0.00043159268 	0.38872335
0.0036582915 	-0.041076652 	-0.00043159268 	0.38872335
0.003678392 	-0.03523802 	-0.0021327664 	0.36849869
0.0036984925 	-0.02982459 	-0.0036875147 	0.34830264
0.003718593 	-0.024876116 	-0.0050097472 	0.32801578
0.0037386935 	-0.020425142 	-0.0060571991 	0.30745983
0.003758794 	-0.016496847 	-0.0068148925 	0.28642717
0.0037788945 	-0.016496847 	-0.0068148925 	0.28642717
0.003798995 	-0.013097785 	-0.0072859229 	0.26469694
0.0038190955 	-0.010207109 	-0.0074897113 	0.24205285
0.003839196 	-0.0077790123 	-0.0074606258 	0.21830661
0.0038592965 	-0.0057550843 	-0.0072411026 	0.19331774
0.003879397 	-0.0040790412 	-0.0068671669 	0.16700006
0.0038994975 	-0.0027078265 	-0.006346246 	0.13931492
0.003919598 	-0.001616727 	-0.0056305012 	0.11026553
0.0039396985 	-0.0007991986 	-0.0045992674 	0.079916702
0.003959799 	-0.00025972477 	-0.0030887991 	0.048457595
0.0039798995 	-1.7708097e-05 	-0.0010499901 	0.016281933
0.004 	-1.7708097e-05 	-0.0010499901 	0.016281933
