0 	-0.071049951 	0.017318898 	1.035961
5.5555556e-05 	-0.070656233 	-0.016613143 	1.034788
0.00011111111 	-0.066913174 	-0.024959743 	1.0329358
0.00016666667 	-0.063797313 	-0.027614405 	1.0303407
0.00022222222 	-0.060794626 	-0.027768136 	1.0270128
0.00027777778 	-0.057682308 	-0.026312351 	1.0230787
0.00033333333 	-0.054420421 	-0.023620802 	1.0187693
0.00038888889 	-0.051072292 	-0.019918469 	1.0143663
0.00044444444 	-0.047752214 	-0.015396818 	1.010132
0.0005 	-0.044590225 	-0.01027403 	1.0062529
0.00055555556 	-0.041676591 	-0.0048087927 	1.0028054
0.00061111111 	-0.039059833 	0.00069682972 	0.99977638
0.00066666667 	-0.036743293 	0.005939904 	0.99710376
0.00072222222 	-0.034685371 	0.010667803 	0.99472538
0.00077777778 	-0.032821249 	0.014737383 	0.99262075
0.00083333333 	-0.031068231 	0.018145036 	0.99082936
0.00088888889 	-0.029348389 	0.021028417 	0.98944905
0.00094444444 	-0.027603617 	0.023575283 	0.98860042
0.001 	-0.025615316 	0.026015661 	0.98828699
0.0010617199 	-0.023455056 	0.028399629 	0.98850998
0.0011225874 	-0.021304896 	0.030541273 	0.98893503
0.0011826143 	-0.019218717 	0.032392684 	0.98902752
0.0012418122 	-0.017208301 	0.034042094 	0.9883137
0.0013001926 	-0.015213472 	0.035668864 	0.98651033
0.0013577668 	-0.013168003 	0.037536933 	0.98357686
0.0014145458 	-0.01107272 	0.039932983 	0.97974041
0.0014705407 	-0.0091083074 	0.043076592 	0.97553277
0.0015257623 	-0.0075718331 	0.046979779 	0.97167985
0.0015802213 	-0.0066718859 	0.05127725 	0.96873625
0.0016339282 	-0.0063503786 	0.055165802 	0.9666066
0.0016868934 	-0.0063663417 	0.057566112 	0.9646321
0.0017391271 	-0.0066450385 	0.057658516 	0.96221964
0.0017906395 	-0.0074568872 	0.055542603 	0.95911568
0.0018414404 	-0.009182609 	0.052433465 	0.95503917
0.0018915398 	-0.011907633 	0.049934258 	0.94936131
0.0019409473 	-0.015277332 	0.048802364 	0.94143648
0.0019896725 	-0.018768798 	0.048425765 	0.9313354
0.0020377248 	-0.022103296 	0.047563069 	0.92000485
0.0020851134 	-0.025369389 	0.045507 	0.90871581
0.0021318476 	-0.028960731 	0.042749402 	0.89866311
0.0021779364 	-0.033386813 	0.040797714 	0.89098388
0.0022233887 	-0.038933769 	0.041495606 	0.88664904
0.0022682133 	-0.045496069 	0.046134338 	0.88601697
0.0023124189 	-0.052701705 	0.054658684 	0.88849756
0.0023560139 	-0.060043664 	0.065214055 	0.89254699
0.0023990069 	-0.066957392 	0.074289551 	0.89573842
0.0024414062 	-0.07270297 	0.077690998 	0.89497226
0.0024832199 	-0.076482545 	0.071916955 	0.8872139
0.0025244562 	-0.077994247 	0.055421924 	0.87118057
0.002565123 	-0.078227053 	0.029740055 	0.84873676
0.0026052281 	-0.079134214 	-0.00046560692 	0.82347449
0.0026447794 	-0.08128577 	-0.029075581 	0.7975374
0.0026837845 	-0.083854003 	-0.051616533 	0.77097893
0.0027222509 	-0.085990841 	-0.066260891 	0.74422094
0.0027601861 	-0.087253509 	-0.073487332 	0.7192411
0.0027975974 	-0.087890112 	-0.075419041 	0.69772576
0.002834492 	-0.088522043 	-0.074615446 	0.67992244
0.0028708772 	-0.089717095 	-0.072948395 	0.6651683
0.0029067598 	-0.091768341 	-0.071238166 	0.65274678
0.0029421469 	-0.094660015 	-0.069520674 	0.64219019
0.0029770452 	-0.098148718 	-0.067494397 	0.63310163
0.0030114616 	-0.10187073 	-0.064862377 	0.6249858
0.0030454028 	-0.10544101 	-0.061524116 	0.61730542
0.0030788752 	-0.10851546 	-0.057610936 	0.60966707
0.0031118853 	-0.11082642 	-0.053388457 	0.60188092
0.0031444395 	-0.11217128 	-0.049143916 	0.59391531
0.0031765442 	-0.11239306 	-0.045129204 	0.58581325
0.0032082055 	-0.11141541 	-0.041544944 	0.57764694
0.0032394295 	-0.10922446 	-0.038543924 	0.569499
0.0032702223 	-0.10587533 	-0.036217834 	0.56147375
0.0033005899 	-0.10146836 	-0.03461468 	0.55367901
0.0033305381 	-0.096143651 	-0.033725797 	0.54624299
0.0033600727 	-0.09004897 	-0.033510293 	0.53927207
0.0033891994 	-0.083362761 	-0.033886952 	0.53283709
0.0034179239 	-0.076267553 	-0.034744131 	0.5269567
0.0034462517 	-0.068938505 	-0.035950542 	0.52157584
0.0034741882 	-0.06153411 	-0.037364812 	0.51656428
0.003501739 	-0.054196225 	-0.038841566 	0.51171675
0.0035289093 	-0.047062446 	-0.040235061 	0.50676991
0.0035557043 	-0.040260642 	-0.041411574 	0.50140713
0.0035821293 	-0.03390636 	-0.04225266 	0.49528317
0.0036081894 	-0.028100629 	-0.042660059 	0.48803683
0.0036338895 	-0.022921262 	-0.042565976 	0.47929921
0.0036592348 	-0.018412928 	-0.041932872 	0.46869126
0.00368423 	-0.014581012 	-0.040751409 	0.45581979
0.00370888 	-0.011393418 	-0.039037623 	0.44028541
0.0037331896 	-0.0087892251 	-0.036830668 	0.42170583
0.0037571635 	-0.0066909481 	-0.034192478 	0.39975666
0.0037808063 	-0.0050161887 	-0.031207531 	0.37422342
0.0038041226 	-0.0036862511 	-0.027979859 	0.3450534
0.0038271169 	-0.0026316273 	-0.02462531 	0.31239288
0.0038497936 	-0.0017952459 	-0.02125914 	0.27659222
0.0038721572 	-0.0011345778 	-0.017980794 	0.23816573
0.0038942119 	-0.00062280386 	-0.014857283 	0.19770239
0.003915962 	-0.00024842702 	-0.011902167 	0.15573976
0.0039374118 	-1.1166215e-05 	-0.0090410799 	0.11263197
0.0039585653 	8.113745e-05 	-0.006047963 	0.068473646
0.0039794267 	3.5806335e-05 	-0.0024582562 	0.023196438
0.004 	-2.5730324e-05 	-0.0013935615 	0.018255851
