0 	-0.029632659 	0.039708085 	0.96053167
5.5555556e-05 	-0.014756962 	-0.039992761 	0.95839194
0.00011111111 	-0.0062078249 	-0.03840409 	0.95888309
0.00016666667 	-0.00081111305 	-0.034972573 	0.96038179
0.00022222222 	0.0033718677 	-0.030862881 	0.96270924
0.00027777778 	0.0069717657 	-0.026456138 	0.96560658
0.00033333333 	0.010283235 	-0.021935714 	0.96877977
0.00038888889 	0.013465049 	-0.017386916 	0.97194342
0.00044444444 	0.016597051 	-0.012832927 	0.97485673
0.0005 	0.019687907 	-0.0082646639 	0.97735343
0.00055555556 	0.022704809 	-0.00371893 	0.97937318
0.00061111111 	0.025555209 	0.00072243923 	0.98097328
0.00066666667 	0.028098467 	0.0049458848 	0.98233521
0.00072222222 	0.030181984 	0.0087629083 	0.98373586
0.00077777778 	0.031651901 	0.011979885 	0.98549123
0.00083333333 	0.032393668 	0.014368516 	0.98790585
0.00088888889 	0.032321685 	0.015704706 	0.99119766
0.00094444444 	0.03148252 	0.015864205 	0.99534304
0.001 	0.029691612 	0.014729697 	1.0003843
0.0010617451 	0.02700397 	0.012334465 	1.0053258
0.0011226367 	0.023761871 	0.0090005568 	1.0086375
0.0011826866 	0.020403804 	0.0051080432 	1.0096816
0.0012419064 	0.017324185 	0.00084375012 	1.0086231
0.0013003077 	0.014787381 	-0.0037181642 	1.0061084
0.0013579017 	0.012896675 	-0.0085339602 	1.0027922
0.0014146996 	0.011636972 	-0.013451827 	0.99906571
0.0014707124 	0.010899522 	-0.018217136 	0.99502721
0.0015259509 	0.010489704 	-0.022573568 	0.99057966
0.001580426 	0.010122931 	-0.026465298 	0.98553477
0.001634148 	0.0094616354 	-0.03014921 	0.9796934
0.0016871274 	0.0082097227 	-0.034010061 	0.97290953
0.0017393745 	0.0062024196 	-0.038134224 	0.96519222
0.0017908994 	0.0034664478 	-0.041986892 	0.95680951
0.0018417121 	0.00019300511 	-0.044488664 	0.94830573
0.0018918224 	-0.0032561704 	-0.04451352 	0.94028588
0.0019412401 	-0.0065026582 	-0.041405289 	0.93310415
0.0019899746 	-0.0093496815 	-0.035204856 	0.92668939
0.0020380356 	-0.011807676 	-0.026570578 	0.92067413
0.0020854322 	-0.01405782 	-0.01652941 	0.91470036
0.0021321736 	-0.016390879 	-0.0061747305 	0.90867797
0.002178269 	-0.01899814 	0.0035734465 	0.9028783
0.0022237272 	-0.021852055 	0.012056946 	0.89783619
0.002268557 	-0.024778314 	0.018997073 	0.89408754
0.0023127672 	-0.027488128 	0.024329241 	0.89187227
0.0023563662 	-0.02971882 	0.028052279 	0.89103947
0.0023993626 	-0.031312766 	0.030159629 	0.89117727
0.0024417647 	-0.032241511 	0.030700248 	0.89182709
0.0024835806 	-0.032578773 	0.029857029 	0.89263157
0.0025248186 	-0.032440456 	0.027967395 	0.89333676
0.0025654865 	-0.031920456 	0.025463994 	0.89376937
0.0026055923 	-0.031083835 	0.022764747 	0.8937656
0.0026451437 	-0.029953546 	0.020187512 	0.89316227
0.0026841484 	-0.028541054 	0.017926954 	0.89183491
0.002722614 	-0.0268596 	0.016030782 	0.889754
0.0027605478 	-0.024958679 	0.014452509 	0.88702487
0.0027979573 	-0.022951253 	0.013078885 	0.88389409
0.0028348498 	-0.020993867 	0.011779891 	0.88070651
0.0028712322 	-0.019262423 	0.010436483 	0.87782968
0.0029071118 	-0.017908487 	0.0089470231 	0.87561357
0.0029424953 	-0.017062725 	0.0072306835 	0.87433106
0.0029773898 	-0.016849576 	0.00524138 	0.87415427
0.003011802 	-0.01734025 	0.0029794374 	0.87510425
0.0030457385 	-0.018546056 	0.0004891674 	0.87704558
0.0030792059 	-0.020408885 	-0.0021799326 	0.87965998
0.0031122107 	-0.022771885 	-0.0049693024 	0.88242534
0.0031447592 	-0.025366402 	-0.0077687626 	0.88464395
0.0031768579 	-0.027819418 	-0.010377549 	0.88555582
0.0032085129 	-0.029736766 	-0.012498846 	0.88450223
0.0032397303 	-0.030739716 	-0.013785303 	0.88106783
0.0032705162 	-0.030514421 	-0.013910571 	0.87511147
0.0033008765 	-0.028822501 	-0.012609051 	0.86674268
0.0033308172 	-0.025495238 	-0.0097728528 	0.85622599
0.0033603441 	-0.02048002 	-0.0054821171 	0.84394821
0.0033894627 	-0.01390471 	-5.0211412e-05 	0.83041828
0.0034181789 	-0.0060746012 	0.0060035095 	0.81619639
0.0034464982 	0.0025393004 	0.012065273 	0.80185622
0.003474426 	0.011352407 	0.017629028 	0.78786026
0.0035019678 	0.019803705 	0.022387657 	0.77455189
0.0035291288 	0.027439078 	0.026289039 	0.76207819
0.0035559144 	0.033911306 	0.029451321 	0.75042826
0.0035823298 	0.038990578 	0.032036981 	0.73948069
0.0036083801 	0.042539729 	0.034123238 	0.72901562
0.0036340702 	0.044496455 	0.035620044 	0.71861617
0.0036594053 	0.044883207 	0.036253336 	0.70750845
0.0036843901 	0.043822443 	0.035593243 	0.69454054
0.0037090296 	0.041520814 	0.033113901 	0.6784562
0.0037333285 	0.038214602 	0.028322445 	0.65828445
0.0037572915 	0.034113003 	0.020980328 	0.63339436
0.0037809233 	0.029421947 	0.011320285 	0.6030506
0.0038042285 	0.024341166 	6.6807765e-05 	0.5658671
0.0038272115 	0.019138699 	-0.011722961 	0.51998097
0.0038498768 	0.014155806 	-0.022825581 	0.46391567
0.0038722288 	0.0097112808 	-0.031899874 	0.39766805
0.0038942718 	0.0060628476 	-0.037571437 	0.32354842
0.0039160102 	0.0033310588 	-0.03866084 	0.24597972
0.003937448 	0.0014876674 	-0.034412059 	0.16986784
0.0039585896 	0.00042419497 	-0.024571416 	0.098465143
0.0039794389 	2.1370848e-05 	-0.0094937986 	0.032117077
0.004 	-0.00014435405 	-0.0083995157 	0.025336732
