0 	-0.0082508635 	0.012477229 	1.0588704
2.0100503e-05 	-0.0082508635 	0.012477229 	1.0588704
4.0201005e-05 	-0.0082508635 	0.012477229 	1.0588704
6.0301508e-05 	-0.017700578 	0.002082523 	1.0596951
8.040201e-05 	-0.017700578 	0.002082523 	1.0596951
0.00010050251 	-0.017700578 	0.002082523 	1.0596951
0.00012060302 	-0.021194237 	-0.0060704063 	1.0596021
0.00014070352 	-0.021194237 	-0.0060704063 	1.0596021
0.00016080402 	-0.021194237 	-0.0060704063 	1.0596021
0.00018090452 	-0.023038129 	-0.012997978 	1.0585237
0.00020100503 	-0.019193707 	-0.02268311 	1.0626083
0.00022110553 	-0.019193707 	-0.02268311 	1.0626083
0.00024120603 	-0.019680742 	-0.027389644 	1.0599504
0.00026130653 	-0.019680742 	-0.027389644 	1.0599504
0.00028140704 	-0.023794434 	-0.02374412 	1.0526215
0.00030150754 	-0.023794434 	-0.02374412 	1.0526215
0.00032160804 	-0.023794434 	-0.02374412 	1.0526215
0.00034170854 	-0.023298933 	-0.027334896 	1.0473582
0.00036180905 	-0.023298933 	-0.027334896 	1.0473582
0.00038190955 	-0.023298933 	-0.027334896 	1.0473582
0.00040201005 	-0.0227153 	-0.029536455 	1.0402272
0.00042211055 	-0.0227153 	-0.029536455 	1.0402272
0.00044221106 	-0.0227153 	-0.029536455 	1.0402272
0.00046231156 	-0.022463513 	-0.030267949 	1.0308118
0.00048241206 	-0.022463513 	-0.030267949 	1.0308118
0.00050251256 	-0.022925354 	-0.029525247 	1.0183978
0.00052261307 	-0.022925354 	-0.029525247 	1.0183978
0.00054271357 	-0.022925354 	-0.029525247 	1.0183978
0.00056281407 	-0.024403442 	-0.027381891 	1.0020172
0.00058291457 	-0.024403442 	-0.027381891 	1.0020172
0.00060301508 	-0.024403442 	-0.027381891 	1.0020172
0.00062311558 	-0.023039602 	-0.033893278 	0.98101709
0.00064321608 	-0.023039602 	-0.033893278 	0.98101709
0.00066331658 	-0.023039602 	-0.033893278 	0.98101709
0.00068341709 	-0.031270206 	-0.019356142 	0.95613377
0.00070351759 	-0.031270206 	-0.019356142 	0.95613377
0.00072361809 	-0.036979608 	-0.013817962 	0.93072761
0.00074371859 	-0.036979608 	-0.013817962 	0.93072761
0.0007638191 	-0.036979608 	-0.013817962 	0.93072761
0.0007839196 	-0.044189955 	-0.0079407196 	0.90926399
0.0008040201 	-0.044189955 	-0.0079407196 	0.90926399
0.0008241206 	-0.044189955 	-0.0079407196 	0.90926399
0.00084422111 	-0.052504007 	-0.0025922718 	0.89404755
0.00086432161 	-0.05152568 	-0.017333316 	0.89698448
0.00088442211 	-0.05152568 	-0.017333316 	0.89698448
0.00090452261 	-0.061028317 	0.0019149777 	0.88392397
0.00092462312 	-0.061028317 	0.0019149777 	0.88392397
0.00094472362 	-0.068705358 	0.0059642686 	0.87671701
0.00096482412 	-0.068705358 	0.0059642686 	0.87671701
0.00098492462 	-0.070467443 	-0.0071044009 	0.88181069
0.0010050251 	-0.078442659 	-0.00078053848 	0.87649095
0.0010251256 	-0.078442659 	-0.00078053848 	0.87649095
0.0010452261 	-0.078442659 	-0.00078053848 	0.87649095
0.0010653266 	-0.083776873 	0.0064289936 	0.87205138
0.0010854271 	-0.079132423 	0.015221163 	0.86581288
0.0011055276 	-0.079132423 	0.015221163 	0.86581288
0.0011256281 	-0.086905263 	0.014872875 	0.86783877
0.0011457286 	-0.086905263 	0.014872875 	0.86783877
0.0011658291 	-0.086905263 	0.014872875 	0.86783877
0.0011859296 	-0.087291256 	0.023985175 	0.86390981
0.0012060302 	-0.087291256 	0.023985175 	0.86390981
0.0012261307 	-0.087291256 	0.023985175 	0.86390981
0.0012462312 	-0.085636264 	0.033884587 	0.86017484
0.0012663317 	-0.085636264 	0.033884587 	0.86017484
0.0012864322 	-0.085636264 	0.033884587 	0.86017484
0.0013065327 	-0.081904055 	0.044029995 	0.85677933
0.0013266332 	-0.081904055 	0.044029995 	0.85677933
0.0013467337 	-0.081904055 	0.044029995 	0.85677933
0.0013668342 	-0.076610397 	0.054066108 	0.85388809
0.0013869347 	-0.076610397 	0.054066108 	0.85388809
0.0014070352 	-0.076610397 	0.054066108 	0.85388809
0.0014271357 	-0.069904298 	0.063382381 	0.8516957
0.0014472362 	-0.069904298 	0.063382381 	0.8516957
0.0014673367 	-0.069904298 	0.063382381 	0.8516957
0.0014874372 	-0.062129669 	0.071484784 	0.85031114
0.0015075377 	-0.062129669 	0.071484784 	0.85031114
0.0015276382 	-0.053497451 	0.077893681 	0.8497335
0.0015477387 	-0.053497451 	0.077893681 	0.8497335
0.0015678392 	-0.053497451 	0.077893681 	0.8497335
0.0015879397 	-0.044291167 	0.082304271 	0.84986596
0.0016080402 	-0.044291167 	0.082304271 	0.84986596
0.0016281407 	-0.044291167 	0.082304271 	0.84986596
0.0016482412 	-0.034794062 	0.084619054 	0.85059305
0.0016683417 	-0.034794062 	0.084619054 	0.85059305
0.0016884422 	-0.025325321 	0.084970353 	0.85180592
0.0017085427 	-0.025325321 	0.084970353 	0.85180592
0.0017286432 	-0.025325321 	0.084970353 	0.85180592
0.0017487437 	-0.016211688 	0.083682588 	0.85339607
0.0017688442 	-0.016211688 	0.083682588 	0.85339607
0.0017889447 	-0.016211688 	0.083682588 	0.85339607
0.0018090452 	-0.0077438312 	0.081192817 	0.85523859
0.0018291457 	-0.0077438312 	0.081192817 	0.85523859
0.0018492462 	-0.00022657916 	0.077969142 	0.85721431
0.0018693467 	-0.00022657916 	0.077969142 	0.85721431
0.0018894472 	-0.00022657916 	0.077969142 	0.85721431
0.0019095477 	0.0061305162 	0.074409986 	0.85924154
0.0019296482 	0.0061305162 	0.074409986 	0.85924154
0.0019497487 	0.011255122 	0.07086779 	0.86126388
0.0019698492 	0.011255122 	0.07086779 	0.86126388
0.0019899497 	0.01515996 	0.067574529 	0.86324184
0.0020100503 	0.01515996 	0.067574529 	0.86324184
0.0020301508 	0.01515996 	0.067574529 	0.86324184
0.0020502513 	0.018023995 	0.06466969 	0.86513944
0.0020703518 	0.018023995 	0.06466969 	0.86513944
0.0020904523 	0.02014195 	0.062221237 	0.8669226
0.0021105528 	0.02014195 	0.062221237 	0.8669226
0.0021306533 	0.02014195 	0.062221237 	0.8669226
0.0021507538 	0.021875178 	0.060247585 	0.86857171
0.0021708543 	0.021875178 	0.060247585 	0.86857171
0.0021909548 	0.023598372 	0.058713807 	0.87009125
0.0022110553 	0.023598372 	0.058713807 	0.87009125
0.0022311558 	0.025622105 	0.057494203 	0.87149841
0.0022512563 	0.025622105 	0.057494203 	0.87149841
0.0022713568 	0.02811704 	0.05635826 	0.8727986
0.0022914573 	0.02811704 	0.05635826 	0.8727986
0.0023115578 	0.02811704 	0.05635826 	0.8727986
0.0023316583 	0.031077911 	0.054981448 	0.87392939
0.0023517588 	0.031077911 	0.054981448 	0.87392939
0.0023718593 	0.034335036 	0.053021823 	0.87474177
0.0023919598 	0.034335036 	0.053021823 	0.87474177
0.0024120603 	0.037596044 	0.050210955 	0.87505527
0.0024321608 	0.037596044 	0.050210955 	0.87505527
0.0024522613 	0.040492779 	0.046411569 	0.87474509
0.0024723618 	0.040492779 	0.046411569 	0.87474509
0.0024924623 	0.042638701 	0.04156364 	0.87376825
0.0025125628 	0.042638701 	0.04156364 	0.87376825
0.0025326633 	0.043715015 	0.035623268 	0.87208024
0.0025527638 	0.043715015 	0.035623268 	0.87208024
0.0025728643 	0.043536244 	0.028514676 	0.86955429
0.0025929648 	0.043536244 	0.028514676 	0.86955429
0.0026130653 	0.042095732 	0.020171822 	0.86607734
0.0026331658 	0.042095732 	0.020171822 	0.86607734
0.0026532663 	0.039536335 	0.010728777 	0.86188256
0.0026733668 	0.039536335 	0.010728777 	0.86188256
0.0026934673 	0.035919011 	0.00081907404 	0.8577769
0.0027135678 	0.035919011 	0.00081907404 	0.8577769
0.0027336683 	0.031253558 	-0.0084390704 	0.85488214
0.0027537688 	0.031253558 	-0.0084390704 	0.85488214
0.0027738693 	0.025694091 	-0.015874035 	0.85396342
0.0027939698 	0.025694091 	-0.015874035 	0.85396342
0.0028140704 	0.019500644 	-0.020931125 	0.85489734
0.0028341709 	0.019500644 	-0.020931125 	0.85489734
0.0028542714 	0.013031509 	-0.023959052 	0.85668747
0.0028743719 	0.0066754084 	-0.02587237 	0.85784801
0.0028944724 	0.0066754084 	-0.02587237 	0.85784801
0.0029145729 	0.00077142214 	-0.027563525 	0.85683644
0.0029346734 	0.00077142214 	-0.027563525 	0.85683644
0.0029547739 	-0.0044422955 	-0.029464705 	0.85243759
0.0029748744 	-0.0044422955 	-0.029464705 	0.85243759
0.0029949749 	-0.0088530343 	-0.031475813 	0.84407754
0.0030150754 	-0.012473242 	-0.033185742 	0.83200633
0.0030351759 	-0.012473242 	-0.033185742 	0.83200633
0.0030552764 	-0.015404875 	-0.034214781 	0.81723486
0.0030753769 	-0.015404875 	-0.034214781 	0.81723486
0.0030954774 	-0.017774756 	-0.034502398 	0.80116809
0.0031155779 	-0.019683268 	-0.034414676 	0.78509406
0.0031356784 	-0.019683268 	-0.034414676 	0.78509406
0.0031557789 	-0.021207328 	-0.034615732 	0.76986078
0.0031758794 	-0.021207328 	-0.034615732 	0.76986078
0.0031959799 	-0.022437527 	-0.03577146 	0.75589536
0.0032160804 	-0.023481505 	-0.038262155 	0.74335678
0.0032361809 	-0.023481505 	-0.038262155 	0.74335678
0.0032562814 	-0.02441268 	-0.04205929 	0.73217748
0.0032763819 	-0.02521442 	-0.046786339 	0.72201531
0.0032964824 	-0.02521442 	-0.046786339 	0.72201531
0.0033165829 	-0.02577171 	-0.051874498 	0.71226893
0.0033366834 	-0.025912602 	-0.056715478 	0.70221107
0.0033567839 	-0.025912602 	-0.056715478 	0.70221107
0.0033768844 	-0.025468849 	-0.060764451 	0.69117828
0.0033969849 	-0.024327175 	-0.063593049 	0.67873395
0.0034170854 	-0.024327175 	-0.063593049 	0.67873395
0.0034371859 	-0.022458108 	-0.064912357 	0.66475744
0.0034572864 	-0.019921444 	-0.064582959 	0.64944764
0.0034773869 	-0.016852703 	-0.062618642 	0.63324819
0.0034974874 	-0.016852703 	-0.062618642 	0.63324819
0.0035175879 	-0.01343748 	-0.059182744 	0.61671423
0.0035376884 	-0.009881061 	-0.054573911 	0.60035644
0.0035577889 	-0.0063801125 	-0.049198758 	0.58450844
0.0035778894 	-0.0063801125 	-0.049198758 	0.58450844
0.0035979899 	-0.0031005477 	-0.043531756 	0.56925416
0.0036180905 	-0.00016700052 	-0.038064263 	0.55442329
0.003638191 	0.0023451021 	-0.033250618 	0.53963392
0.0036582915 	0.0023451021 	-0.033250618 	0.53963392
0.003678392 	0.0044069136 	-0.02945533 	0.52435318
0.0036984925 	0.0060213452 	-0.026906897 	0.50795015
0.003718593 	0.0072106179 	-0.025666678 	0.48974565
0.0037386935 	0.0080024066 	-0.025609545 	0.46906897
0.003758794 	0.0084169936 	-0.026426511 	0.44533351
0.0037788945 	0.0084169936 	-0.026426511 	0.44533351
0.003798995 	0.0084623062 	-0.027656794 	0.4181204
0.0038190955 	0.0081397392 	-0.028753313 	0.38723614
0.003839196 	0.0074591507 	-0.029172501 	0.35270753
0.0038592965 	0.0064571649 	-0.028476346 	0.31470576
0.003879397 	0.0052102668 	-0.026425407 	0.27343824
0.0038994975 	0.0038362517 	-0.023034218 	0.22907962
0.003919598 	0.002482796 	-0.018560222 	0.18180073
0.0039396985 	0.0013078279 	-0.013415303 	0.13189218
0.003959799 	0.00045460021 	-0.0080221126 	0.079907804
0.0039798995 	3.3856262e-05 	-0.0026620735 	0.026737258
0.004 	3.3856262e-05 	-0.0026620735 	0.026737258
