0 	0.033322059 	0.032166818 	1.0889162
5.5555556e-05 	0.021120653 	-0.04652363 	1.1203566
0.00011111111 	0.016982243 	-0.048455952 	1.1310661
0.00016666667 	0.01456828 	-0.047871666 	1.1367593
0.00022222222 	0.012036385 	-0.04557006 	1.137801
0.00027777778 	0.0092281023 	-0.041837972 	1.1361035
0.00033333333 	0.0063657238 	-0.037306327 	1.1340774
0.00038888889 	0.0035950843 	-0.032808427 	1.1332546
0.00044444444 	0.001009741 	-0.028878804 	1.1339816
0.0005 	-0.0012131722 	-0.025647616 	1.1360939
0.00055555556 	-0.0027579973 	-0.023075187 	1.139362
0.00061111111 	-0.0032439523 	-0.021135459 	1.1433433
0.00066666667 	-0.0023873507 	-0.019840999 	1.1472631
0.00072222222 	-0.00013743557 	-0.019155363 	1.1503381
0.00077777778 	0.0033118829 	-0.018928008 	1.1522211
0.00083333333 	0.0076912446 	-0.018819837 	1.1531059
0.00088888889 	0.012639715 	-0.018463196 	1.1535098
0.00094444444 	0.018000922 	-0.017411774 	1.1540084
0.001 	0.024011444 	-0.015234928 	1.1553328
0.0010617224 	0.03072815 	-0.012031111 	1.15766
0.0011225923 	0.037387921 	-0.0082632918 	1.1601633
0.0011826215 	0.043324016 	-0.0049960298 	1.1613304
0.0012418217 	0.047613322 	-0.0034310105 	1.1593987
0.0013002041 	0.049260064 	-0.0042482439 	1.153664
0.0013577803 	0.047773 	-0.0073819924 	1.1449595
0.0014145612 	0.043326385 	-0.012200505 	1.1350543
0.0014705579 	0.036639974 	-0.017811901 	1.1257008
0.0015257812 	0.028807161 	-0.023305628 	1.117973
0.0015802418 	0.02102703 	-0.027875056 	1.1120174
0.0016339502 	0.01427766 	-0.030890739 	1.1072928
0.0016869168 	0.0091446004 	-0.032014606 	1.1031313
0.0017391518 	0.0058085927 	-0.031321438 	1.0992053
0.0017906654 	0.0041698347 	-0.02926803 	1.0956142
0.0018414676 	0.0040277872 	-0.026442138 	1.092647
0.0018915681 	0.0051723123 	-0.023392389 	1.0905158
0.0019409766 	0.0074113595 	-0.020583354 	1.0892158
0.0019897027 	0.010509508 	-0.018380857 	1.0885203
0.0020377558 	0.014211863 	-0.016899795 	1.0880289
0.0020851453 	0.018356277 	-0.015970569 	1.0873204
0.0021318802 	0.022813227 	-0.015286709 	1.0861679
0.0021779697 	0.027419765 	-0.014604965 	1.0846634
0.0022234225 	0.031963364 	-0.013826921 	1.0831083
0.0022682477 	0.036262573 	-0.012981129 	1.0817787
0.0023124537 	0.040293337 	-0.012231318 	1.0807782
0.0023560491 	0.044133877 	-0.01178026 	1.0799908
0.0023990425 	0.047952524 	-0.011799126 	1.0791985
0.002441442 	0.05193533 	-0.012398092 	1.078175
0.002483256 	0.056213667 	-0.013596276 	1.0767934
0.0025244924 	0.060872 	-0.015418482 	1.0750398
0.0025651593 	0.065891869 	-0.01784207 	1.0730031
0.0026052645 	0.071221077 	-0.02086474 	1.0708662
0.0026448158 	0.076754379 	-0.024418124 	1.0688434
0.0026838209 	0.082370271 	-0.028397752 	1.0671326
0.0027222872 	0.087992396 	-0.032618074 	1.0658237
0.0027602223 	0.093601988 	-0.036790649 	1.0647977
0.0027976334 	0.099212873 	-0.04058157 	1.0637292
0.0028345278 	0.10483138 	-0.043665187 	1.0622392
0.0028709126 	0.11039456 	-0.045794846 	1.0601557
0.002906795 	0.1157333 	-0.046891852 	1.0577275
0.0029421817 	0.12062961 	-0.047006854 	1.05552
0.0029770797 	0.12495779 	-0.04623921 	1.0538685
0.0030114957 	0.12883458 	-0.044637542 	1.052239
0.0030454363 	0.132563 	-0.042185918 	1.0492213
0.0030789082 	0.13632939 	-0.03880377 	1.0433879
0.0031119178 	0.13989043 	-0.034403786 	1.0345522
0.0031444715 	0.14252419 	-0.029003099 	1.0244731
0.0031765755 	0.14331062 	-0.022760953 	1.0162971
0.0032082362 	0.14164948 	-0.015851955 	1.0129257
0.0032394596 	0.13768208 	-0.0082861619 	1.0153758
0.0032702517 	0.13250933 	0.00016287086 	1.0221619
0.0033006186 	0.12748074 	0.0099027981 	1.0299585
0.003330566 	0.123754 	0.02105926 	1.0342809
0.0033600998 	0.12227129 	0.032687753 	1.0296438
0.0033892257 	0.12309794 	0.042557002 	1.0114064
0.0034179494 	0.12491521 	0.048033069 	0.98028936
0.0034462763 	0.12507834 	0.047602239 	0.94527735
0.003474212 	0.12037296 	0.042293264 	0.92091897
0.0035017619 	0.10837612 	0.036727391 	0.91986963
0.0035289312 	0.088875552 	0.038606321 	0.94528311
0.0035557253 	0.064758685 	0.054668067 	0.98727499
0.0035821494 	0.041399063 	0.084640087 	1.024965
0.0036082084 	0.024414405 	0.11915799 	1.033667
0.0036339076 	0.017058176 	0.14513825 	0.99585541
0.0036592518 	0.018761585 	0.15437388 	0.91115595
0.003684246 	0.025759424 	0.14750123 	0.79713119
0.003708895 	0.033413403 	0.13084041 	0.67817314
0.0037332035 	0.038493705 	0.11108039 	0.57239026
0.0037571763 	0.039935714 	0.092548535 	0.48661359
0.003780818 	0.038249522 	0.077065744 	0.41910585
0.0038041332 	0.03453963 	0.064796841 	0.3645434
0.0038271264 	0.029814982 	0.05516603 	0.31757818
0.0038498019 	0.024738903 	0.04747728 	0.2742401
0.0038721643 	0.019666473 	0.04118094 	0.23200379
0.0038942179 	0.014763876 	0.035870023 	0.18943676
0.0039159668 	0.010134468 	0.031119668 	0.14591335
0.0039374154 	0.0059333613 	0.026238468 	0.10156061
0.0039585677 	0.002488034 	0.019925731 	0.057503601
0.0039794279 	0.00030471018 	0.0096734559 	0.016466378
0.004 	0.00030471018 	0.0096734559 	0.016466378
