0 	0.014396666 	0.0078959091 	1.1364669
5.5555556e-05 	0.012042175 	0.020445447 	1.1310403
0.00011111111 	0.012228188 	0.027907785 	1.1255619
0.00016666667 	0.013513062 	0.0335941 	1.1197486
0.00022222222 	0.015248303 	0.038303047 	1.1134037
0.00027777778 	0.017266399 	0.042667343 	1.1063302
0.00033333333 	0.019581713 	0.047089803 	1.0983353
0.00038888889 	0.022199316 	0.051605345 	1.0893348
0.00044444444 	0.02500655 	0.055881438 	1.0794475
0.0005 	0.027779767 	0.059390221 	1.0689884
0.00055555556 	0.030294136 	0.061734031 	1.0584248
0.00061111111 	0.032412989 	0.063011622 	1.0485175
0.00066666667 	0.034017668 	0.0638747 	1.0406089
0.00072222222 	0.034896954 	0.065073675 	1.0363606
0.00077777778 	0.034850331 	0.066801274 	1.0365862
0.00083333333 	0.034041734 	0.068547654 	1.0403148
0.00088888889 	0.032926926 	0.069622169 	1.045573
0.00094444444 	0.032160033 	0.069842198 	1.0508779
0.001 	0.032199305 	0.069172077 	1.0560189
0.0010617199 	0.033293408 	0.067898736 	1.0610047
0.0011225874 	0.035099808 	0.066258271 	1.0659183
0.0011826143 	0.037226924 	0.064130281 	1.070811
0.0012418122 	0.039398271 	0.061245617 	1.075202
0.0013001926 	0.041586032 	0.057373158 	1.0784044
0.0013577668 	0.043784698 	0.052488975 	1.0800357
0.0014145458 	0.045811571 	0.046896977 	1.0802882
0.0014705407 	0.047195839 	0.041216332 	1.0799711
0.0015257623 	0.047270007 	0.036147265 	1.0802312
0.0015802213 	0.045565548 	0.032166958 	1.0819632
0.0016339282 	0.042249469 	0.029282 	1.0851818
0.0016868934 	0.038142696 	0.027037668 	1.0890324
0.0017391271 	0.034271345 	0.0248183 	1.0924292
0.0017906395 	0.031325903 	0.022341469 	1.094705
0.0018414404 	0.029357146 	0.020090417 	1.095898
0.0018915398 	0.027870047 	0.019392176 	1.0966448
0.0019409473 	0.026261097 	0.022195898 	1.0977172
0.0019896725 	0.024291503 	0.030426116 	1.0988746
0.0020377248 	0.022220407 	0.044829041 	1.0973363
0.0020851134 	0.020567646 	0.063738666 	1.0880719
0.0021318476 	0.019630903 	0.082451828 	1.0680748
0.0021779364 	0.018754004 	0.095626071 	1.0396004
0.0022233887 	0.016909294 	0.10117341 	1.0077741
0.0022682133 	0.013377968 	0.098938828 	0.97850004
0.0023124189 	0.0074661773 	0.089045272 	0.95699628
0.0023560139 	-0.0013172158 	0.071377244 	0.94494326
0.0023990069 	-0.013188682 	0.046365626 	0.94042396
0.0024414062 	-0.027939728 	0.016168739 	0.94102746
0.0024832199 	-0.04420409 	-0.014872074 	0.94406838
0.0025244562 	-0.058963781 	-0.041320019 	0.94466736
0.002565123 	-0.069111114 	-0.058940621 	0.93695625
0.0026052281 	-0.073375943 	-0.066023021 	0.91758062
0.0026447794 	-0.072727931 	-0.063772878 	0.88776629
0.0026837845 	-0.069532293 	-0.055542732 	0.8537562
0.0027222509 	-0.066604283 	-0.045599161 	0.8254065
0.0027601861 	-0.066376884 	-0.038569643 	0.81190231
0.0027975974 	-0.069837287 	-0.03790485 	0.81497713
0.002834492 	-0.075407375 	-0.04295642 	0.8255661
0.0028708772 	-0.0799143 	-0.04997783 	0.83102203
0.0029067598 	-0.081346383 	-0.056762241 	0.82564064
0.0029421469 	-0.079884771 	-0.062857612 	0.8092228
0.0029770452 	-0.076761854 	-0.067837173 	0.78088996
0.0030114616 	-0.07326126 	-0.071555174 	0.7413495
0.0030454028 	-0.07039504 	-0.073946352 	0.69620982
0.0030788752 	-0.068702287 	-0.074547424 	0.65328763
0.0031118853 	-0.068209616 	-0.07285069 	0.6181768
0.0031444395 	-0.068606594 	-0.068745157 	0.59277643
0.0031765442 	-0.06945032 	-0.06252164 	0.57624387
0.0032082055 	-0.07032049 	-0.054715266 	0.56640945
0.0032394295 	-0.070894999 	-0.045971375 	0.5608188
0.0032702223 	-0.070958974 	-0.036933579 	0.55731348
0.0033005899 	-0.070390763 	-0.028155009 	0.55423616
0.0033305381 	-0.069136562 	-0.020053585 	0.55043276
0.0033600727 	-0.067162253 	-0.012905926 	0.54516462
0.0033891994 	-0.064565277 	-0.006854851 	0.53801594
0.0034179239 	-0.061478408 	-0.0019530845 	0.52892542
0.0034462517 	-0.057941464 	0.0017934995 	0.5178784
0.0034741882 	-0.054040177 	0.0044387884 	0.50500496
0.003501739 	-0.049873538 	0.006079149 	0.49053099
0.0035289093 	-0.045543245 	0.0068400795 	0.47473494
0.0035557043 	-0.041145077 	0.0068652094 	0.45790971
0.0035821293 	-0.036763748 	0.0063071233 	0.44032863
0.0036081894 	-0.032470922 	0.0053196125 	0.42221665
0.0036338895 	-0.028326596 	0.0040509331 	0.40372838
0.0036592348 	-0.024380565 	0.0026370787 	0.38493478
0.00368423 	-0.020674269 	0.001196355 	0.36581853
0.00370888 	-0.017241689 	-0.00017509966 	0.34627792
0.0037331896 	-0.01410961 	-0.0014063699 	0.3261404
0.0037571635 	-0.011298741 	-0.0024527661 	0.30518385
0.0037808063 	-0.0088234519 	-0.0032950386 	0.28316191
0.0038041226 	-0.0066909497 	-0.0039368984 	0.25983059
0.0038271169 	-0.0048991015 	-0.0043999524 	0.23497416
0.0038497936 	-0.0034346123 	-0.0047141057 	0.20843057
0.0038721572 	-0.0022738318 	-0.0049010146 	0.18011641
0.0038942119 	-0.0013912811 	-0.0049492776 	0.15004893
0.003915962 	-0.00075745209 	-0.0047822208 	0.11837284
0.0039374118 	-0.00033571499 	-0.0042357008 	0.085382263
0.0039585653 	-9.103265e-05 	-0.0030825262 	0.051514273
0.0039794267 	8.7720914e-07 	-0.0011781334 	0.017266102
0.004 	-3.3751243e-05 	-0.00062084726 	0.01915234
