0 	0.038063983 	-0.031672593 	0.99223345
5.5555625e-05 	0.029467549 	-0.062142738 	0.98675839
0.00011111111 	0.029175052 	-0.080963157 	0.98025172
0.00016666667 	0.032594586 	-0.096606423 	0.97404957
0.00022222222 	0.037991881 	-0.10873159 	0.96853609
0.00027777778 	0.043511745 	-0.11551722 	0.96324261
0.00033333333 	0.047589133 	-0.11608463 	0.95791916
0.00038888889 	0.049565805 	-0.11119272 	0.952955
0.00044444444 	0.049613587 	-0.10256991 	0.94898781
0.0005 	0.04829881 	-0.09207587 	0.94646801
0.00055555556 	0.046181717 	-0.081257551 	0.9455219
0.00061111111 	0.043629324 	-0.071232984 	0.94600167
0.00066666667 	0.040803404 	-0.062696741 	0.94758845
0.00072222222 	0.037714464 	-0.055948306 	0.94988715
0.00077777778 	0.03429465 	-0.050944365 	0.95252087
0.00083333333 	0.030446093 	-0.04738424 	0.95515981
0.00088888889 	0.026045758 	-0.044838919 	0.95754717
0.00094444444 	0.021035326 	-0.042970615 	0.95947269
0.001 	0.015368106 	-0.0412463 	0.96104293
0.0010617199 	0.0091189886 	-0.039603314 	0.96221566
0.0011225874 	0.0028837333 	-0.037873743 	0.96332687
0.0011826143 	-0.0027018667 	-0.03590065 	0.96492126
0.0012418122 	-0.0071498719 	-0.033514311 	0.9673337
0.0013001926 	-0.010310323 	-0.030474049 	0.97035087
0.0013577668 	-0.012406267 	-0.026490159 	0.97313386
0.0014145458 	-0.013766625 	-0.021275588 	0.97459319
0.0014705407 	-0.014570626 	-0.014770996 	0.97390475
0.0015257623 	-0.014890655 	-0.0074396646 	0.97082603
0.0015802213 	-0.014918878 	-0.00024474865 	0.96580069
0.0016339282 	-0.015056057 	0.0059194008 	0.95979042
0.0016868934 	-0.015623483 	0.010764137 	0.95386737
0.0017391271 	-0.016632145 	0.014768302 	0.9487666
0.0017906395 	-0.017822795 	0.018797847 	0.94454723
0.0018414404 	-0.018897408 	0.023573178 	0.94052523
0.0018915398 	-0.019797747 	0.029293994 	0.93557556
0.0019409473 	-0.020731825 	0.035436274 	0.92863027
0.0019896725 	-0.022008509 	0.041190092 	0.91924797
0.0020377248 	-0.023719356 	0.046116806 	0.90777387
0.0020851134 	-0.025600721 	0.05038705 	0.89523554
0.0021318476 	-0.027178525 	0.054465654 	0.88289548
0.0021779364 	-0.027949925 	0.05864331 	0.87182249
0.0022233887 	-0.027620688 	0.062764171 	0.86272463
0.0022682133 	-0.026140456 	0.066301475 	0.85599535
0.0023124189 	-0.023728906 	0.06863751 	0.85185311
0.0023560139 	-0.020714284 	0.069285106 	0.85038071
0.0023990069 	-0.017289275 	0.067964071 	0.85152644
0.0024414062 	-0.013483409 	0.064719529 	0.85494503
0.0024832199 	-0.0093047152 	0.059992606 	0.86002262
0.0025244562 	-0.004810653 	0.05442323 	0.866209
0.002565123 	-0.00025576648 	0.048341041 	0.87336209
0.0026052281 	0.0039981167 	0.041403709 	0.88162343
0.0026447794 	0.0077543891 	0.032609392 	0.89089593
0.0026837845 	0.0112033 	0.020608533 	0.9003463
0.0027222509 	0.015023313 	0.0041523342 	0.90834098
0.0027601861 	0.019914555 	-0.017172375 	0.91287578
0.0027975974 	0.026129252 	-0.041942311 	0.91233311
0.002834492 	0.033096274 	-0.06675779 	0.90617599
0.0028708772 	0.039738623 	-0.08778207 	0.895072
0.0029067598 	0.045136942 	-0.10228062 	0.880373
0.0029421469 	0.04879081 	-0.10887609 	0.86347338
0.0029770452 	0.050546578 	-0.10712101 	0.84508358
0.0030114616 	0.050223333 	-0.097599087 	0.82489594
0.0030454028 	0.047448367 	-0.082422624 	0.8022634
0.0030788752 	0.042090057 	-0.064443747 	0.77761051
0.0031118853 	0.035016254 	-0.044924236 	0.75281931
0.0031444395 	0.028238597 	-0.023948838 	0.73047515
0.0031765442 	0.023391909 	-0.0030107196 	0.71264326
0.0032082055 	0.020442228 	0.015361505 	0.70004293
0.0032394295 	0.018342381 	0.029618969 	0.69206137
0.0032702223 	0.016163779 	0.039703466 	0.68760094
0.0033005899 	0.013452075 	0.046434012 	0.68579275
0.0033305381 	0.010163043 	0.050724272 	0.68617827
0.0033600727 	0.0064753454 	0.053214602 	0.688443
0.0033891994 	0.002614096 	0.054317357 	0.69220904
0.0034179239 	-0.0012095327 	0.054417495 	0.69701501
0.0034462517 	-0.004817929 	0.053973244 	0.70234675
0.0034741882 	-0.0081002278 	0.053450359 	0.70762093
0.003501739 	-0.010998055 	0.053210039 	0.71215601
0.0035289093 	-0.013482531 	0.053438307 	0.71518653
0.0035557043 	-0.015549341 	0.054157486 	0.71590973
0.0035821293 	-0.017185926 	0.055281264 	0.71357116
0.0036081894 	-0.01836177 	0.056664089 	0.7074678
0.0036338895 	-0.019026837 	0.058131763 	0.69691208
0.0036592348 	-0.019127299 	0.059485503 	0.68118715
0.00368423 	-0.018630947 	0.060508889 	0.65958243
0.00370888 	-0.017553456 	0.060988051 	0.63154506
0.0037331896 	-0.015978693 	0.060748744 	0.59690666
0.0037571635 	-0.014060574 	0.059714491 	0.55606169
0.0037808063 	-0.011999225 	0.05793672 	0.50997945
0.0038041226 	-0.0099901395 	0.055565219 	0.46000488
0.0038271169 	-0.0081611199 	0.052736012 	0.40753772
0.0038497936 	-0.0065373834 	0.049431313 	0.35375544
0.0038721572 	-0.0050645182 	0.045414965 	0.29949162
0.0038942119 	-0.0036779564 	0.040301395 	0.24524181
0.003915962 	-0.0023732864 	0.033729283 	0.19119251
0.0039374118 	-0.0012345019 	0.02555104 	0.13722604
0.0039585653 	-0.00040196998 	0.015946942 	0.082976349
0.0039794267 	-1.3108573e-05 	0.0054173264 	0.028038665
0.004 	-1.3108573e-05 	0.0054173264 	0.028038665
