0 	0.021197455 	0.011756114 	1.0479333
2.0100503e-05 	0.021197455 	0.011756114 	1.0479333
4.0201005e-05 	0.021197455 	0.011756114 	1.0479333
6.0301508e-05 	0.022964704 	-0.0023445142 	1.0491889
8.040201e-05 	0.022964704 	-0.0023445142 	1.0491889
0.00010050251 	0.022964704 	-0.0023445142 	1.0491889
0.00012060302 	0.020745722 	-0.0090181914 	1.0506395
0.00014070352 	0.020745722 	-0.0090181914 	1.0506395
0.00016080402 	0.020745722 	-0.0090181914 	1.0506395
0.00018090452 	0.017769853 	-0.014315261 	1.0532116
0.00020100503 	0.014188539 	-0.014429699 	1.0487438
0.00022110553 	0.014188539 	-0.014429699 	1.0487438
0.00024120603 	0.0106503 	-0.01772886 	1.0529669
0.00026130653 	0.0106503 	-0.01772886 	1.0529669
0.00028140704 	0.009737583 	-0.024669852 	1.0597489
0.00030150754 	0.009737583 	-0.024669852 	1.0597489
0.00032160804 	0.009737583 	-0.024669852 	1.0597489
0.00034170854 	0.0047193223 	-0.029649599 	1.061011
0.00036180905 	0.0047193223 	-0.029649599 	1.061011
0.00038190955 	0.0047193223 	-0.029649599 	1.061011
0.00040201005 	-0.00085044216 	-0.033419785 	1.0588447
0.00042211055 	-0.00085044216 	-0.033419785 	1.0588447
0.00044221106 	-0.00085044216 	-0.033419785 	1.0588447
0.00046231156 	-0.0067916195 	-0.034696342 	1.052002
0.00048241206 	-0.0067916195 	-0.034696342 	1.052002
0.00050251256 	-0.012884929 	-0.032232339 	1.0402878
0.00052261307 	-0.012884929 	-0.032232339 	1.0402878
0.00054271357 	-0.012884929 	-0.032232339 	1.0402878
0.00056281407 	-0.018926607 	-0.025686032 	1.0257635
0.00058291457 	-0.018926607 	-0.025686032 	1.0257635
0.00060301508 	-0.018926607 	-0.025686032 	1.0257635
0.00062311558 	-0.029315112 	-0.0070476251 	1.0059209
0.00064321608 	-0.029315112 	-0.0070476251 	1.0059209
0.00066331658 	-0.029315112 	-0.0070476251 	1.0059209
0.00068341709 	-0.030751151 	-0.0052982986 	1.0058002
0.00070351759 	-0.030751151 	-0.0052982986 	1.0058002
0.00072361809 	-0.037315066 	0.0061137129 	1.0036823
0.00074371859 	-0.037315066 	0.0061137129 	1.0036823
0.0007638191 	-0.037315066 	0.0061137129 	1.0036823
0.0007839196 	-0.045178599 	0.017919154 	1.0017953
0.0008040201 	-0.045178599 	0.017919154 	1.0017953
0.0008241206 	-0.046949847 	0.030300844 	0.99429289
0.00084422111 	-0.05359608 	0.041772373 	0.98904516
0.00086432161 	-0.05359608 	0.041772373 	0.98904516
0.00088442211 	-0.05359608 	0.041772373 	0.98904516
0.00090452261 	-0.062680392 	0.041256903 	0.98597032
0.00092462312 	-0.059036479 	0.050860149 	0.9800645
0.00094472362 	-0.061579055 	0.055426333 	0.96978237
0.00096482412 	-0.061579055 	0.055426333 	0.96978237
0.00098492462 	-0.061579055 	0.055426333 	0.96978237
0.0010050251 	-0.070887027 	0.052846597 	0.96150763
0.0010251256 	-0.070887027 	0.052846597 	0.96150763
0.0010452261 	-0.070887027 	0.052846597 	0.96150763
0.0010653266 	-0.067712159 	0.047557235 	0.95175732
0.0010854271 	-0.067712159 	0.047557235 	0.95175732
0.0011055276 	-0.067712159 	0.047557235 	0.95175732
0.0011256281 	-0.060068632 	0.03520648 	0.94532242
0.0011457286 	-0.060068632 	0.03520648 	0.94532242
0.0011658291 	-0.060068632 	0.03520648 	0.94532242
0.0011859296 	-0.050217079 	0.018833829 	0.94184845
0.0012060302 	-0.050217079 	0.018833829 	0.94184845
0.0012261307 	-0.050217079 	0.018833829 	0.94184845
0.0012462312 	-0.04092311 	0.0027704394 	0.93987774
0.0012663317 	-0.04092311 	0.0027704394 	0.93987774
0.0012864322 	-0.04092311 	0.0027704394 	0.93987774
0.0013065327 	-0.033838817 	-0.0099398041 	0.93819652
0.0013266332 	-0.033838817 	-0.0099398041 	0.93819652
0.0013467337 	-0.033838817 	-0.0099398041 	0.93819652
0.0013668342 	-0.029809662 	-0.017748111 	0.93581756
0.0013869347 	-0.029809662 	-0.017748111 	0.93581756
0.0014070352 	-0.029809662 	-0.017748111 	0.93581756
0.0014271357 	-0.028850842 	-0.020454169 	0.93191036
0.0014472362 	-0.028850842 	-0.020454169 	0.93191036
0.0014673367 	-0.028850842 	-0.020454169 	0.93191036
0.0014874372 	-0.030536978 	-0.01877714 	0.92579955
0.0015075377 	-0.030536978 	-0.01877714 	0.92579955
0.0015276382 	-0.034183366 	-0.014161465 	0.91761264
0.0015477387 	-0.034183366 	-0.014161465 	0.91761264
0.0015678392 	-0.034183366 	-0.014161465 	0.91761264
0.0015879397 	-0.038889796 	-0.008856488 	0.90861211
0.0016080402 	-0.038889796 	-0.008856488 	0.90861211
0.0016281407 	-0.038889796 	-0.008856488 	0.90861211
0.0016482412 	-0.043607929 	-0.0057040045 	0.90058952
0.0016683417 	-0.043607929 	-0.0057040045 	0.90058952
0.0016884422 	-0.047286396 	-0.0068788723 	0.89488417
0.0017085427 	-0.047286396 	-0.0068788723 	0.89488417
0.0017286432 	-0.047286396 	-0.0068788723 	0.89488417
0.0017487437 	-0.049180685 	-0.012075561 	0.8919552
0.0017688442 	-0.049180685 	-0.012075561 	0.8919552
0.0017889447 	-0.049180685 	-0.012075561 	0.8919552
0.0018090452 	-0.049170816 	-0.018339516 	0.8911637
0.0018291457 	-0.049170816 	-0.018339516 	0.8911637
0.0018492462 	-0.047730506 	-0.022472781 	0.89131057
0.0018693467 	-0.047730506 	-0.022472781 	0.89131057
0.0018894472 	-0.047730506 	-0.022472781 	0.89131057
0.0019095477 	-0.045546771 	-0.023218657 	0.89181535
0.0019296482 	-0.045546771 	-0.023218657 	0.89181535
0.0019497487 	-0.043208682 	-0.021168122 	0.89295134
0.0019698492 	-0.043208682 	-0.021168122 	0.89295134
0.0019899497 	-0.04112787 	-0.017755056 	0.89506227
0.0020100503 	-0.04112787 	-0.017755056 	0.89506227
0.0020301508 	-0.04112787 	-0.017755056 	0.89506227
0.0020502513 	-0.039480332 	-0.014592687 	0.89804211
0.0020703518 	-0.039480332 	-0.014592687 	0.89804211
0.0020904523 	-0.038113111 	-0.012930937 	0.90133942
0.0021105528 	-0.038113111 	-0.012930937 	0.90133942
0.0021306533 	-0.038113111 	-0.012930937 	0.90133942
0.0021507538 	-0.036575676 	-0.013316487 	0.90427851
0.0021708543 	-0.036575676 	-0.013316487 	0.90427851
0.0021909548 	-0.034371009 	-0.01557091 	0.90635705
0.0022110553 	-0.034371009 	-0.01557091 	0.90635705
0.0022311558 	-0.031225334 	-0.019077669 	0.90736944
0.0022512563 	-0.031225334 	-0.019077669 	0.90736944
0.0022713568 	-0.027212769 	-0.023179908 	0.90745407
0.0022914573 	-0.027212769 	-0.023179908 	0.90745407
0.0023115578 	-0.027212769 	-0.023179908 	0.90745407
0.0023316583 	-0.022756903 	-0.027513927 	0.90712535
0.0023517588 	-0.022756903 	-0.027513927 	0.90712535
0.0023718593 	-0.01849093 	-0.032089681 	0.90717762
0.0023919598 	-0.01849093 	-0.032089681 	0.90717762
0.0024120603 	-0.015035488 	-0.037066148 	0.90845783
0.0024321608 	-0.015035488 	-0.037066148 	0.90845783
0.0024522613 	-0.012784996 	-0.042327475 	0.91154234
0.0024723618 	-0.012784996 	-0.042327475 	0.91154234
0.0024924623 	-0.011779343 	-0.047239737 	0.91640615
0.0025125628 	-0.011779343 	-0.047239737 	0.91640615
0.0025326633 	-0.011699089 	-0.050890749 	0.92229956
0.0025527638 	-0.011699089 	-0.050890749 	0.92229956
0.0025728643 	-0.012035236 	-0.052693815 	0.92798293
0.0025929648 	-0.012035236 	-0.052693815 	0.92798293
0.0026130653 	-0.012284419 	-0.052862264 	0.9322039
0.0026331658 	-0.012284419 	-0.052862264 	0.9322039
0.0026532663 	-0.0120447 	-0.052364157 	0.93409992
0.0026733668 	-0.0120447 	-0.052364157 	0.93409992
0.0026934673 	-0.011012796 	-0.052427746 	0.93331197
0.0027135678 	-0.011012796 	-0.052427746 	0.93331197
0.0027336683 	-0.0089676377 	-0.053955008 	0.92982633
0.0027537688 	-0.0089676377 	-0.053955008 	0.92982633
0.0027738693 	-0.0057697183 	-0.057114807 	0.92371229
0.0027939698 	-0.0057697183 	-0.057114807 	0.92371229
0.0028140704 	-0.0014020978 	-0.061207564 	0.91494398
0.0028341709 	-0.0014020978 	-0.061207564 	0.91494398
0.0028542714 	0.0039884474 	-0.064855146 	0.90347603
0.0028743719 	0.0099245884 	-0.066504633 	0.88973241
0.0028944724 	0.0099245884 	-0.066504633 	0.88973241
0.0029145729 	0.015474393 	-0.065235004 	0.8752542
0.0029346734 	0.015474393 	-0.065235004 	0.8752542
0.0029547739 	0.019245731 	-0.061094137 	0.86273008
0.0029748744 	0.019245731 	-0.061094137 	0.86273008
0.0029949749 	0.020030672 	-0.054422999 	0.85472777
0.0030150754 	0.01757917 	-0.044930668 	0.85208131
0.0030351759 	0.01757917 	-0.044930668 	0.85208131
0.0030552764 	0.012637651 	-0.031472577 	0.85362784
0.0030753769 	0.012637651 	-0.031472577 	0.85362784
0.0030954774 	0.0065636792 	-0.013386353 	0.85788953
0.0031155779 	0.00020410898 	0.0082446966 	0.86467774
0.0031356784 	0.00020410898 	0.0082446966 	0.86467774
0.0031557789 	-0.0063475519 	0.030722829 	0.87470156
0.0031758794 	-0.0063475519 	0.030722829 	0.87470156
0.0031959799 	-0.012926966 	0.05111355 	0.8878757
0.0032160804 	-0.019264425 	0.067780198 	0.9022926
0.0032361809 	-0.019264425 	0.067780198 	0.9022926
0.0032562814 	-0.025121215 	0.080575897 	0.91506075
0.0032763819 	-0.030255728 	0.090308949 	0.92362365
0.0032964824 	-0.030255728 	0.090308949 	0.92362365
0.0033165829 	-0.034511243 	0.097967011 	0.9265056
0.0033366834 	-0.037831442 	0.10436801 	0.92324402
0.0033567839 	-0.037831442 	0.10436801 	0.92324402
0.0033768844 	-0.040219201 	0.10989543 	0.91406038
0.0033969849 	-0.04167952 	0.11449119 	0.89954138
0.0034170854 	-0.04167952 	0.11449119 	0.89954138
0.0034371859 	-0.042182375 	0.11772059 	0.8804038
0.0034572864 	-0.041662355 	0.1189165 	0.85730779
0.0034773869 	-0.040056204 	0.11739728 	0.83072512
0.0034974874 	-0.040056204 	0.11739728 	0.83072512
0.0035175879 	-0.037361411 	0.11271871 	0.8009076
0.0035376884 	-0.033690425 	0.1048991 	0.76797444
0.0035577889 	-0.029295762 	0.094540325 	0.73206712
0.0035778894 	-0.029295762 	0.094540325 	0.73206712
0.0035979899 	-0.024547918 	0.082771344 	0.69347712
0.0036180905 	-0.019866319 	0.070984121 	0.65267132
0.003638191 	-0.01562446 	0.060437718 	0.6102232
0.0036582915 	-0.01562446 	0.060437718 	0.6102232
0.003678392 	-0.012066728 	0.051904725 	0.56672573
0.0036984925 	-0.0092707936 	0.045533421 	0.52275161
0.003718593 	-0.0071694311 	0.040973707 	0.47885979
0.0037386935 	-0.0056144325 	0.037648794 	0.43560472
0.003758794 	-0.0044464073 	0.034993017 	0.39350898
0.0037788945 	-0.0044464073 	0.034993017 	0.39350898
0.003798995 	-0.0035375804 	0.032562491 	0.35299338
0.0038190955 	-0.0028027862 	0.030042684 	0.31428798
0.003839196 	-0.0021921749 	0.027226437 	0.27735711
0.0038592965 	-0.0016791335 	0.024015377 	0.24186301
0.003879397 	-0.0012492987 	0.020433106 	0.20718777
0.0038994975 	-0.00089246645 	0.016635174 	0.17252444
0.003919598 	-0.00059793733 	0.012882872 	0.13703726
0.0039396985 	-0.00035417837 	0.0094428262 	0.10006589
0.003959799 	-0.0001582912 	0.0063494097 	0.061310729
0.0039798995 	-2.5834918e-05 	0.002933697 	0.020907824
0.004 	-2.5834918e-05 	0.002933697 	0.020907824
