0 	0.039445745 	-0.0047117424 	1.1068
2.0100503e-05 	0.0068601357 	0.040123727 	1.108544
4.0201005e-05 	0.0068601357 	0.040123727 	1.108544
6.0301508e-05 	-0.0098753435 	0.039190928 	1.1104709
8.040201e-05 	-0.0098753435 	0.039190928 	1.1104709
0.00010050251 	-0.0098753435 	0.039190928 	1.1104709
0.00012060302 	-0.012457286 	0.036857977 	1.1125006
0.00014070352 	-0.012457286 	0.036857977 	1.1125006
0.00016080402 	-0.012457286 	0.036857977 	1.1125006
0.00018090452 	-0.012079293 	0.034328695 	1.1143409
0.00020100503 	-0.012079293 	0.034328695 	1.1143409
0.00022110553 	-0.012079293 	0.034328695 	1.1143409
0.00024120603 	-0.010776382 	0.031471474 	1.1155253
0.00026130653 	-0.010776382 	0.031471474 	1.1155253
0.00028140704 	-0.009360316 	0.028544503 	1.1155481
0.00030150754 	-0.009360316 	0.028544503 	1.1155481
0.00032160804 	-0.009360316 	0.028544503 	1.1155481
0.00034170854 	-0.0083072141 	0.025952501 	1.1140262
0.00036180905 	-0.0083072141 	0.025952501 	1.1140262
0.00038190955 	-0.0083072141 	0.025952501 	1.1140262
0.00040201005 	-0.0079005533 	0.024101216 	1.1108156
0.00042211055 	-0.0079005533 	0.024101216 	1.1108156
0.00044221106 	-0.0079005533 	0.024101216 	1.1108156
0.00046231156 	-0.0082628312 	0.023331628 	1.1060323
0.00048241206 	-0.0082628312 	0.023331628 	1.1060323
0.00050251256 	-0.0093802474 	0.02391099 	1.0999747
0.00052261307 	-0.0093802474 	0.02391099 	1.0999747
0.00054271357 	-0.0093802474 	0.02391099 	1.0999747
0.00056281407 	-0.011138131 	0.02602051 	1.0929568
0.00058291457 	-0.011138131 	0.02602051 	1.0929568
0.00060301508 	-0.011138131 	0.02602051 	1.0929568
0.00062311558 	-0.013367729 	0.029763994 	1.085122
0.00064321608 	-0.013367729 	0.029763994 	1.085122
0.00066331658 	-0.013367729 	0.029763994 	1.085122
0.00068341709 	-0.015852233 	0.035139113 	1.0762853
0.00070351759 	-0.015852233 	0.035139113 	1.0762853
0.00072361809 	-0.018337677 	0.042093088 	1.0659361
0.00074371859 	-0.018337677 	0.042093088 	1.0659361
0.0007638191 	-0.018337677 	0.042093088 	1.0659361
0.0007839196 	-0.020494957 	0.050513358 	1.0534247
0.0008040201 	-0.020494957 	0.050513358 	1.0534247
0.0008241206 	-0.020494957 	0.050513358 	1.0534247
0.00084422111 	-0.021927111 	0.060165899 	1.0381201
0.00086432161 	-0.021927111 	0.060165899 	1.0381201
0.00088442211 	-0.021927111 	0.060165899 	1.0381201
0.00090452261 	-0.022349983 	0.07039774 	1.0194886
0.00092462312 	-0.022349983 	0.07039774 	1.0194886
0.00094472362 	-0.022062618 	0.080065266 	0.99805832
0.00096482412 	-0.022062618 	0.080065266 	0.99805832
0.00098492462 	-0.022062618 	0.080065266 	0.99805832
0.0010050251 	-0.030969648 	0.08139777 	0.97033898
0.0010251256 	-0.030969648 	0.08139777 	0.97033898
0.0010452261 	-0.030969648 	0.08139777 	0.97033898
0.0010653266 	-0.034013074 	0.087886046 	0.95247509
0.0010854271 	-0.034013074 	0.087886046 	0.95247509
0.0011055276 	-0.034013074 	0.087886046 	0.95247509
0.0011256281 	-0.037420181 	0.09311849 	0.93973977
0.0011457286 	-0.037420181 	0.09311849 	0.93973977
0.0011658291 	-0.037420181 	0.09311849 	0.93973977
0.0011859296 	-0.039974471 	0.096388655 	0.93029979
0.0012060302 	-0.039974471 	0.096388655 	0.93029979
0.0012261307 	-0.039974471 	0.096388655 	0.93029979
0.0012462312 	-0.040631531 	0.097181986 	0.92427284
0.0012663317 	-0.040631531 	0.097181986 	0.92427284
0.0012864322 	-0.040631531 	0.097181986 	0.92427284
0.0013065327 	-0.039019105 	0.095379262 	0.92154357
0.0013266332 	-0.039019105 	0.095379262 	0.92154357
0.0013467337 	-0.039019105 	0.095379262 	0.92154357
0.0013668342 	-0.035090759 	0.091005412 	0.92151678
0.0013869347 	-0.035090759 	0.091005412 	0.92151678
0.0014070352 	-0.035090759 	0.091005412 	0.92151678
0.0014271357 	-0.029306821 	0.084181731 	0.92375395
0.0014472362 	-0.029306821 	0.084181731 	0.92375395
0.0014673367 	-0.029306821 	0.084181731 	0.92375395
0.0014874372 	-0.02242888 	0.07513319 	0.92790472
0.0015075377 	-0.02242888 	0.07513319 	0.92790472
0.0015276382 	-0.015266853 	0.064218719 	0.93362701
0.0015477387 	-0.015266853 	0.064218719 	0.93362701
0.0015678392 	-0.015266853 	0.064218719 	0.93362701
0.0015879397 	-0.0084776021 	0.051821724 	0.94061947
0.0016080402 	-0.0084776021 	0.051821724 	0.94061947
0.0016281407 	-0.0084776021 	0.051821724 	0.94061947
0.0016482412 	-0.0024875916 	0.038327757 	0.94865987
0.0016683417 	-0.0024875916 	0.038327757 	0.94865987
0.0016884422 	0.0025082939 	0.024257231 	0.95760116
0.0017085427 	0.0025082939 	0.024257231 	0.95760116
0.0017286432 	0.0025082939 	0.024257231 	0.95760116
0.0017487437 	0.0064426016 	0.010399102 	0.96722394
0.0017688442 	0.0064426016 	0.010399102 	0.96722394
0.0017889447 	0.0064426016 	0.010399102 	0.96722394
0.0018090452 	0.0093606221 	-0.0022920162 	0.9769641
0.0018291457 	0.0093606221 	-0.0022920162 	0.9769641
0.0018492462 	0.011091746 	-0.012900132 	0.98570757
0.0018693467 	0.011091746 	-0.012900132 	0.98570757
0.0018894472 	0.011091746 	-0.012900132 	0.98570757
0.0019095477 	0.01158391 	-0.020822678 	0.99183761
0.0019296482 	0.01158391 	-0.020822678 	0.99183761
0.0019497487 	0.011109539 	-0.026261639 	0.99383764
0.0019698492 	0.011109539 	-0.026261639 	0.99383764
0.0019899497 	0.011109539 	-0.026261639 	0.99383764
0.0020100503 	0.0098632137 	-0.029860613 	0.99128073
0.0020301508 	0.0098632137 	-0.029860613 	0.99128073
0.0020502513 	0.0080973157 	-0.032482851 	0.98503019
0.0020703518 	0.0080973157 	-0.032482851 	0.98503019
0.0020904523 	0.006024434 	-0.03497558 	0.97663241
0.0021105528 	0.006024434 	-0.03497558 	0.97663241
0.0021306533 	0.006024434 	-0.03497558 	0.97663241
0.0021507538 	0.0038363945 	-0.038067051 	0.96752597
0.0021708543 	0.0038363945 	-0.038067051 	0.96752597
0.0021909548 	0.0016712176 	-0.042240507 	0.95876296
0.0022110553 	0.0016712176 	-0.042240507 	0.95876296
0.0022311558 	-0.00046534116 	-0.047584247 	0.95109026
0.0022512563 	-0.00046534116 	-0.047584247 	0.95109026
0.0022713568 	-0.0026222799 	-0.053637855 	0.9449893
0.0022914573 	-0.0026222799 	-0.053637855 	0.9449893
0.0023115578 	-0.0026222799 	-0.053637855 	0.9449893
0.0023316583 	-0.004829422 	-0.059516085 	0.94062731
0.0023517588 	-0.004829422 	-0.059516085 	0.94062731
0.0023718593 	-0.0070743857 	-0.064211622 	0.93786547
0.0023919598 	-0.0070743857 	-0.064211622 	0.93786547
0.0024120603 	-0.009261823 	-0.066958789 	0.93634554
0.0024321608 	-0.009261823 	-0.066958789 	0.93634554
0.0024522613 	-0.01119263 	-0.067441047 	0.93569039
0.0024723618 	-0.01119263 	-0.067441047 	0.93569039
0.0024924623 	-0.012711515 	-0.065752984 	0.93559243
0.0025125628 	-0.012711515 	-0.065752984 	0.93559243
0.0025326633 	-0.013762383 	-0.062258625 	0.93585052
0.0025527638 	-0.013762383 	-0.062258625 	0.93585052
0.0025728643 	-0.014347851 	-0.057466706 	0.93632814
0.0025929648 	-0.014347851 	-0.057466706 	0.93632814
0.0026130653 	-0.014506099 	-0.05193464 	0.93696206
0.0026331658 	-0.014506099 	-0.05193464 	0.93696206
0.0026532663 	-0.014305172 	-0.046257219 	0.93777204
0.0026733668 	-0.014305172 	-0.046257219 	0.93777204
0.0026934673 	-0.013897132 	-0.040938816 	0.93886228
0.0027135678 	-0.013897132 	-0.040938816 	0.93886228
0.0027336683 	-0.013466555 	-0.036489793 	0.94036596
0.0027537688 	-0.013466555 	-0.036489793 	0.94036596
0.0027738693 	-0.013003054 	-0.033286294 	0.94235987
0.0027939698 	-0.013003054 	-0.033286294 	0.94235987
0.0028140704 	-0.012493803 	-0.031610066 	0.94488524
0.0028341709 	-0.012493803 	-0.031610066 	0.94488524
0.0028542714 	-0.011953903 	-0.031576448 	0.94786399
0.0028743719 	-0.011315034 	-0.033107992 	0.95111387
0.0028944724 	-0.011315034 	-0.033107992 	0.95111387
0.0029145729 	-0.010517672 	-0.035919378 	0.95438787
0.0029346734 	-0.010517672 	-0.035919378 	0.95438787
0.0029547739 	-0.0095006398 	-0.039499365 	0.95738113
0.0029748744 	-0.0095006398 	-0.039499365 	0.95738113
0.0029949749 	-0.0082060923 	-0.043187561 	0.95978196
0.0030150754 	-0.0066862247 	-0.046272665 	0.96129686
0.0030351759 	-0.0066862247 	-0.046272665 	0.96129686
0.0030552764 	-0.0049317496 	-0.048085781 	0.96157531
0.0030753769 	-0.0049317496 	-0.048085781 	0.96157531
0.0030954774 	-0.0029376807 	-0.048098293 	0.96027514
0.0031155779 	-0.00068472763 	-0.046012678 	0.95709193
0.0031356784 	-0.00068472763 	-0.046012678 	0.95709193
0.0031557789 	0.0018414773 	-0.041773227 	0.95180736
0.0031758794 	0.0018414773 	-0.041773227 	0.95180736
0.0031959799 	0.0045508848 	-0.03549647 	0.94439513
0.0032160804 	0.0073423555 	-0.027445043 	0.93523358
0.0032361809 	0.0073423555 	-0.027445043 	0.93523358
0.0032562814 	0.010097502 	-0.017999273 	0.92508253
0.0032763819 	0.012744533 	-0.0076704272 	0.9149784
0.0032964824 	0.012744533 	-0.0076704272 	0.9149784
0.0033165829 	0.015242257 	0.0029183617 	0.90586841
0.0033366834 	0.017601009 	0.013169567 	0.89817343
0.0033567839 	0.017601009 	0.013169567 	0.89817343
0.0033768844 	0.019901018 	0.022710217 	0.89159364
0.0033969849 	0.022040277 	0.031323752 	0.88523441
0.0034170854 	0.022040277 	0.031323752 	0.88523441
0.0034371859 	0.023525848 	0.03849567 	0.87822959
0.0034572864 	0.023538144 	0.043078208 	0.87053661
0.0034773869 	0.021372609 	0.044014551 	0.86247699
0.0034974874 	0.021372609 	0.044014551 	0.86247699
0.0035175879 	0.01715742 	0.041679079 	0.85292487
0.0035376884 	0.011948522 	0.038135557 	0.83851464
0.0035577889 	0.0070588188 	0.035938851 	0.8154451
0.0035778894 	0.0070588188 	0.035938851 	0.8154451
0.0035979899 	0.0033387984 	0.036587868 	0.78195524
0.0036180905 	0.00096734374 	0.039891629 	0.73920328
0.003638191 	-0.00034396595 	0.044596322 	0.69041896
0.0036582915 	-0.00034396595 	0.044596322 	0.69041896
0.003678392 	-0.0010278591 	0.049459101 	0.63938122
0.0036984925 	-0.0013834528 	0.053801918 	0.58902884
0.003718593 	-0.0016226337 	0.057368789 	0.54076845
0.0037386935 	-0.0018311208 	0.059938856 	0.49456386
0.003758794 	-0.0019879101 	0.061148402 	0.44947455
0.0037788945 	-0.0019879101 	0.061148402 	0.44947455
0.003798995 	-0.001988521 	0.060625425 	0.40433458
0.0038190955 	-0.001733975 	0.058246254 	0.35836783
0.003839196 	-0.0012560263 	0.054269751 	0.31158121
0.0038592965 	-0.00066094197 	0.049242818 	0.26472947
0.003879397 	-0.00013177715 	0.043759984 	0.21883923
0.0038994975 	0.00018137364 	0.038214736 	0.17463407
0.003919598 	0.0002401474 	0.03262479 	0.1322719
0.0039396985 	0.00012386206 	0.026534759 	0.091542439
0.003959799 	-3.5123802e-05 	0.01893545 	0.052408755
0.0039798995 	-6.3868551e-05 	0.0081606866 	0.015780677
0.004 	-6.3868551e-05 	0.0081606866 	0.015780677
