0 	-0.010629993 	0.013539799 	1.0616456
2.0100503e-05 	-0.010629993 	0.013539799 	1.0616456
4.0201005e-05 	-0.010629993 	0.013539799 	1.0616456
6.0301508e-05 	-0.0023832691 	0.018717327 	1.0656769
8.040201e-05 	-0.0023832691 	0.018717327 	1.0656769
0.00010050251 	-0.0023832691 	0.018717327 	1.0656769
0.00012060302 	0.0010837958 	0.020887671 	1.071151
0.00014070352 	0.0010837958 	0.020887671 	1.071151
0.00016080402 	0.0010837958 	0.020887671 	1.071151
0.00018090452 	0.0029028733 	0.023328194 	1.0767435
0.00020100503 	0.011805045 	0.02279265 	1.0829997
0.00022110553 	0.011805045 	0.02279265 	1.0829997
0.00024120603 	0.011861582 	0.025297351 	1.0855339
0.00026130653 	0.011861582 	0.025297351 	1.0855339
0.00028140704 	0.0028145808 	0.028902258 	1.0814456
0.00030150754 	0.0028145808 	0.028902258 	1.0814456
0.00032160804 	0.0028145808 	0.028902258 	1.0814456
0.00034170854 	0.0012939605 	0.03026643 	1.0794919
0.00036180905 	0.0012939605 	0.03026643 	1.0794919
0.00038190955 	0.0012939605 	0.03026643 	1.0794919
0.00040201005 	-0.00068359488 	0.029733715 	1.0762769
0.00042211055 	-0.00068359488 	0.029733715 	1.0762769
0.00044221106 	-0.00068359488 	0.029733715 	1.0762769
0.00046231156 	-0.0029185033 	0.027504124 	1.0736845
0.00048241206 	-0.0029185033 	0.027504124 	1.0736845
0.00050251256 	-0.0056839181 	0.024585737 	1.0730376
0.00052261307 	-0.0056839181 	0.024585737 	1.0730376
0.00054271357 	-0.0056839181 	0.024585737 	1.0730376
0.00056281407 	-0.0093322143 	0.022042929 	1.0746413
0.00058291457 	-0.0093322143 	0.022042929 	1.0746413
0.00060301508 	-0.0093322143 	0.022042929 	1.0746413
0.00062311558 	-0.0058016264 	0.024748716 	1.0763472
0.00064321608 	-0.0058016264 	0.024748716 	1.0763472
0.00066331658 	-0.0058016264 	0.024748716 	1.0763472
0.00068341709 	-0.019315887 	0.020558267 	1.081823
0.00070351759 	-0.019315887 	0.020558267 	1.081823
0.00072361809 	-0.024607886 	0.021917815 	1.0850197
0.00074371859 	-0.024607886 	0.021917815 	1.0850197
0.0007638191 	-0.024607886 	0.021917815 	1.0850197
0.0007839196 	-0.028994987 	0.024559025 	1.0859984
0.0008040201 	-0.028994987 	0.024559025 	1.0859984
0.0008241206 	-0.020369103 	0.029288509 	1.0860037
0.00084422111 	-0.023722229 	0.03300479 	1.0854668
0.00086432161 	-0.023722229 	0.03300479 	1.0854668
0.00088442211 	-0.023722229 	0.03300479 	1.0854668
0.00090452261 	-0.033319664 	0.033039568 	1.0757964
0.00092462312 	-0.025570806 	0.037709188 	1.0809497
0.00094472362 	-0.026165917 	0.043138092 	1.0716122
0.00096482412 	-0.026165917 	0.043138092 	1.0716122
0.00098492462 	-0.026165917 	0.043138092 	1.0716122
0.0010050251 	-0.034871731 	0.042346041 	1.044355
0.0010251256 	-0.034871731 	0.042346041 	1.044355
0.0010452261 	-0.034871731 	0.042346041 	1.044355
0.0010653266 	-0.038374695 	0.043486832 	1.0189632
0.0010854271 	-0.038374695 	0.043486832 	1.0189632
0.0011055276 	-0.038374695 	0.043486832 	1.0189632
0.0011256281 	-0.045462516 	0.039804641 	0.99022335
0.0011457286 	-0.045462516 	0.039804641 	0.99022335
0.0011658291 	-0.045462516 	0.039804641 	0.99022335
0.0011859296 	-0.055804245 	0.032330768 	0.9616334
0.0012060302 	-0.055804245 	0.032330768 	0.9616334
0.0012261307 	-0.055804245 	0.032330768 	0.9616334
0.0012462312 	-0.067093985 	0.024885909 	0.93762051
0.0012663317 	-0.067093985 	0.024885909 	0.93762051
0.0012864322 	-0.067093985 	0.024885909 	0.93762051
0.0013065327 	-0.076477399 	0.021643646 	0.92109439
0.0013266332 	-0.076477399 	0.021643646 	0.92109439
0.0013467337 	-0.076477399 	0.021643646 	0.92109439
0.0013668342 	-0.082256707 	0.024221002 	0.91166617
0.0013869347 	-0.082256707 	0.024221002 	0.91166617
0.0014070352 	-0.082256707 	0.024221002 	0.91166617
0.0014271357 	-0.084604383 	0.031392551 	0.9066014
0.0014472362 	-0.084604383 	0.031392551 	0.9066014
0.0014673367 	-0.084604383 	0.031392551 	0.9066014
0.0014874372 	-0.084559349 	0.040922938 	0.90324234
0.0015075377 	-0.084559349 	0.040922938 	0.90324234
0.0015276382 	-0.083064635 	0.050899322 	0.90028334
0.0015477387 	-0.083064635 	0.050899322 	0.90028334
0.0015678392 	-0.083064635 	0.050899322 	0.90028334
0.0015879397 	-0.080882774 	0.059909465 	0.89737119
0.0016080402 	-0.080882774 	0.059909465 	0.89737119
0.0016281407 	-0.080882774 	0.059909465 	0.89737119
0.0016482412 	-0.078608041 	0.06695333 	0.89452559
0.0016683417 	-0.078608041 	0.06695333 	0.89452559
0.0016884422 	-0.076536731 	0.071507326 	0.89200666
0.0017085427 	-0.076536731 	0.071507326 	0.89200666
0.0017286432 	-0.076536731 	0.071507326 	0.89200666
0.0017487437 	-0.074746678 	0.073443448 	0.89021747
0.0017688442 	-0.074746678 	0.073443448 	0.89021747
0.0017889447 	-0.074746678 	0.073443448 	0.89021747
0.0018090452 	-0.073144095 	0.072938485 	0.88949659
0.0018291457 	-0.073144095 	0.072938485 	0.88949659
0.0018492462 	-0.071586601 	0.070304574 	0.89000174
0.0018693467 	-0.071586601 	0.070304574 	0.89000174
0.0018894472 	-0.071586601 	0.070304574 	0.89000174
0.0019095477 	-0.069878921 	0.06593031 	0.89167303
0.0019296482 	-0.069878921 	0.06593031 	0.89167303
0.0019497487 	-0.067829383 	0.060241889 	0.89425534
0.0019698492 	-0.067829383 	0.060241889 	0.89425534
0.0019899497 	-0.06530377 	0.053733319 	0.89734863
0.0020100503 	-0.06530377 	0.053733319 	0.89734863
0.0020301508 	-0.06530377 	0.053733319 	0.89734863
0.0020502513 	-0.062255413 	0.04695553 	0.90050861
0.0020703518 	-0.062255413 	0.04695553 	0.90050861
0.0020904523 	-0.058704714 	0.040446937 	0.90339813
0.0021105528 	-0.058704714 	0.040446937 	0.90339813
0.0021306533 	-0.058704714 	0.040446937 	0.90339813
0.0021507538 	-0.054720367 	0.034655914 	0.90587083
0.0021708543 	-0.054720367 	0.034655914 	0.90587083
0.0021909548 	-0.0503847 	0.029832288 	0.90796427
0.0022110553 	-0.0503847 	0.029832288 	0.90796427
0.0022311558 	-0.045760066 	0.026026104 	0.90982093
0.0022512563 	-0.045760066 	0.026026104 	0.90982093
0.0022713568 	-0.040900713 	0.023107836 	0.91161018
0.0022914573 	-0.040900713 	0.023107836 	0.91161018
0.0023115578 	-0.040900713 	0.023107836 	0.91161018
0.0023316583 	-0.035852614 	0.02084245 	0.91345245
0.0023517588 	-0.035852614 	0.02084245 	0.91345245
0.0023718593 	-0.030651627 	0.018986559 	0.91538265
0.0023919598 	-0.030651627 	0.018986559 	0.91538265
0.0024120603 	-0.025324822 	0.017361542 	0.91735123
0.0024321608 	-0.025324822 	0.017361542 	0.91735123
0.0024522613 	-0.01989826 	0.015888988 	0.91925554
0.0024723618 	-0.01989826 	0.015888988 	0.91925554
0.0024924623 	-0.014383217 	0.014575989 	0.92095944
0.0025125628 	-0.014383217 	0.014575989 	0.92095944
0.0025326633 	-0.0087760774 	0.0134732 	0.92230816
0.0025527638 	-0.0087760774 	0.0134732 	0.92230816
0.0025728643 	-0.0030669692 	0.012639154 	0.92312444
0.0025929648 	-0.0030669692 	0.012639154 	0.92312444
0.0026130653 	0.0027628636 	0.012082279 	0.9232408
0.0026331658 	0.0027628636 	0.012082279 	0.9232408
0.0026532663 	0.0087277842 	0.011732713 	0.9225445
0.0026733668 	0.0087277842 	0.011732713 	0.9225445
0.0026934673 	0.014803046 	0.011414917 	0.92103575
0.0027135678 	0.014803046 	0.011414917 	0.92103575
0.0027336683 	0.020913575 	0.010857268 	0.91887298
0.0027537688 	0.020913575 	0.010857268 	0.91887298
0.0027738693 	0.026932704 	0.0097262173 	0.91639073
0.0027939698 	0.026932704 	0.0097262173 	0.91639073
0.0028140704 	0.032669531 	0.007685552 	0.91406563
0.0028341709 	0.032669531 	0.007685552 	0.91406563
0.0028542714 	0.037893365 	0.0045023103 	0.91245867
0.0028743719 	0.042369895 	0.00014249072 	0.9120947
0.0028944724 	0.042369895 	0.00014249072 	0.9120947
0.0029145729 	0.04595129 	-0.0051523353 	0.91333349
0.0029346734 	0.04595129 	-0.0051523353 	0.91333349
0.0029547739 	0.048586737 	-0.010905209 	0.91624261
0.0029748744 	0.048586737 	-0.010905209 	0.91624261
0.0029949749 	0.050284777 	-0.016543741 	0.92057478
0.0030150754 	0.051137168 	-0.021547001 	0.92585202
0.0030351759 	0.051137168 	-0.021547001 	0.92585202
0.0030552764 	0.05128663 	-0.02559315 	0.93149249
0.0030753769 	0.05128663 	-0.02559315 	0.93149249
0.0030954774 	0.050868132 	-0.028623672 	0.93692645
0.0031155779 	0.049973203 	-0.0308147 	0.94165877
0.0031356784 	0.049973203 	-0.0308147 	0.94165877
0.0031557789 	0.048641484 	-0.032499696 	0.94526183
0.0031758794 	0.048641484 	-0.032499696 	0.94526183
0.0031959799 	0.046869373 	-0.034096789 	0.94730192
0.0032160804 	0.044651469 	-0.036056379 	0.9471958
0.0032361809 	0.044651469 	-0.036056379 	0.9471958
0.0032562814 	0.042039854 	-0.038826487 	0.94407393
0.0032763819 	0.039166903 	-0.042808065 	0.93689078
0.0032964824 	0.039166903 	-0.042808065 	0.93689078
0.0033165829 	0.036173874 	-0.048283157 	0.92503162
0.0033366834 	0.033107401 	-0.055402298 	0.90914526
0.0033567839 	0.033107401 	-0.055402298 	0.90914526
0.0033768844 	0.029944859 	-0.064291932 	0.89116378
0.0033969849 	0.026812856 	-0.07518343 	0.87279366
0.0034170854 	0.026812856 	-0.07518343 	0.87279366
0.0034371859 	0.024141625 	-0.088169359 	0.85362087
0.0034572864 	0.022458606 	-0.10281546 	0.83086811
0.0034773869 	0.022004588 	-0.11817417 	0.80099018
0.0034974874 	0.022004588 	-0.11817417 	0.80099018
0.0035175879 	0.022537228 	-0.13310704 	0.76162516
0.0035376884 	0.02331944 	-0.14637918 	0.71282828
0.0035577889 	0.0232233 	-0.1564021 	0.65735766
0.0035778894 	0.0232233 	-0.1564021 	0.65735766
0.0035979899 	0.021105913 	-0.16098113 	0.60011544
0.0036180905 	0.016408896 	-0.15763385 	0.54683801
0.003638191 	0.0094726457 	-0.14478029 	0.50246611
0.0036582915 	0.0094726457 	-0.14478029 	0.50246611
0.003678392 	0.0011299924 	-0.12310414 	0.46985659
0.0036984925 	-0.0078095521 	-0.095940696 	0.44872804
0.003718593 	-0.016807794 	-0.06799265 	0.43541961
0.0037386935 	-0.025361606 	-0.042864807 	0.42473825
0.003758794 	-0.032677885 	-0.021582169 	0.41249159
0.0037788945 	-0.032677885 	-0.021582169 	0.41249159
0.003798995 	-0.037911372 	-0.0034186774 	0.39641384
0.0038190955 	-0.040504574 	0.012327896 	0.37533231
0.003839196 	-0.040388126 	0.025404845 	0.34817278
0.0038592965 	-0.037752597 	0.034711359 	0.31411614
0.003879397 	-0.032871606 	0.039119185 	0.27315038
0.0038994975 	-0.026241666 	0.038062982 	0.22652756
0.003919598 	-0.018687966 	0.031872548 	0.17672311
0.0039396985 	-0.011142029 	0.021784478 	0.12639915
0.003959799 	-0.0046810778 	0.0099716292 	0.076922979
0.0039798995 	-0.00056926148 	0.00024858098 	0.027188505
0.004 	-0.00056926148 	0.00024858098 	0.027188505
