0 	-0.03522737 	0.017087562 	1.0761546
5.5555556e-05 	-0.041290027 	-0.0047193873 	1.0748539
0.00011111111 	-0.041610682 	-0.014791782 	1.0724896
0.00016666667 	-0.041059505 	-0.022632614 	1.0689337
0.00022222222 	-0.039764019 	-0.029807937 	1.0643339
0.00027777778 	-0.037771998 	-0.036517142 	1.058976
0.00033333333 	-0.035216471 	-0.042583436 	1.0531899
0.00038888889 	-0.032295039 	-0.047732281 	1.0473107
0.00044444444 	-0.029276445 	-0.051694548 	1.0416466
0.0005 	-0.026478149 	-0.054287006 	1.0364683
0.00055555556 	-0.024248789 	-0.055439278 	1.0319212
0.00061111111 	-0.022964969 	-0.055218824 	1.0279713
0.00066666667 	-0.022984655 	-0.053838728 	1.0243655
0.00072222222 	-0.02459202 	-0.05161529 	1.0207183
0.00077777778 	-0.027881782 	-0.04887892 	1.0167591
0.00083333333 	-0.032646281 	-0.045839016 	1.0126308
0.00088888889 	-0.038352501 	-0.042522365 	1.0089856
0.00094444444 	-0.044372061 	-0.038688525 	1.006698
0.001 	-0.04961509 	-0.033798098 	1.0063442
0.0010617199 	-0.053111846 	-0.026936393 	1.0084539
0.0011225874 	-0.054622393 	-0.018494462 	1.012061
0.0011826143 	-0.054331787 	-0.0085029542 	1.0157608
0.0012418122 	-0.053097892 	0.0026262045 	1.0178295
0.0013001926 	-0.051777088 	0.014425545 	1.0164941
0.0013577668 	-0.051229602 	0.026275901 	1.010352
0.0014145458 	-0.052163887 	0.03749177 	0.99866504
0.0014705407 	-0.055210585 	0.047228533 	0.98120833
0.0015257623 	-0.06119835 	0.054505411 	0.95788148
0.0015802213 	-0.071153066 	0.058553284 	0.92920357
0.0016339282 	-0.08538951 	0.059498797 	0.89772625
0.0016868934 	-0.10196702 	0.058919493 	0.86818541
0.0017391271 	-0.11674945 	0.05930832 	0.84488028
0.0017906395 	-0.12634489 	0.062031209 	0.8289768
0.0018414404 	-0.13036436 	0.065928642 	0.81911612
0.0018915398 	-0.13026511 	0.069130736 	0.81356271
0.0019409473 	-0.12741948 	0.071154521 	0.81107552
0.0019896725 	-0.12281589 	0.072605421 	0.8107261
0.0020377248 	-0.11730712 	0.07402576 	0.81189215
0.0020851134 	-0.11155944 	0.07556061 	0.81418606
0.0021318476 	-0.10588271 	0.077035794 	0.81726895
0.0021779364 	-0.10035983 	0.077978616 	0.8207001
0.0022233887 	-0.095148259 	0.077806698 	0.82399887
0.0022682133 	-0.090539486 	0.076133596 	0.82677413
0.0023124189 	-0.086777573 	0.072993797 	0.8287841
0.0023560139 	-0.084050068 	0.068809371 	0.82988284
0.0023990069 	-0.082424464 	0.064220919 	0.82996653
0.0024414062 	-0.081849919 	0.059883927 	0.8288646
0.0024832199 	-0.082153424 	0.056245749 	0.82640504
0.0025244562 	-0.083063698 	0.053473907 	0.8225406
0.002565123 	-0.084271301 	0.05148066 	0.81753021
0.0026052281 	-0.085429242 	0.049999566 	0.81201956
0.0026447794 	-0.086219594 	0.048638891 	0.80689217
0.0026837845 	-0.086381305 	0.046897623 	0.80296732
0.0027222509 	-0.085734613 	0.044246731 	0.8006939
0.0027601861 	-0.084220432 	0.040359131 	0.80003775
0.0027975974 	-0.08184054 	0.035339372 	0.80060948
0.002834492 	-0.078636908 	0.029741152 	0.8018365
0.0028708772 	-0.074683129 	0.024360057 	0.80306113
0.0029067598 	-0.070064731 	0.019914266 	0.80355357
0.0029421469 	-0.064918974 	0.016883154 	0.80261669
0.0029770452 	-0.059429644 	0.015383418 	0.7997929
0.0030114616 	-0.053873654 	0.015041797 	0.79505881
0.0030454028 	-0.048663386 	0.014961655 	0.78894712
0.0030788752 	-0.044303497 	0.013802097 	0.7824146
0.0031118853 	-0.041240489 	0.010199838 	0.77636226
0.0031444395 	-0.039541646 	0.0035106406 	0.77073954
0.0031765442 	-0.038558897 	-0.0054333501 	0.76400631
0.0032082055 	-0.037126455 	-0.014575518 	0.7539905
0.0032394295 	-0.03426501 	-0.021999751 	0.73937532
0.0032702223 	-0.029795207 	-0.026929325 	0.72048264
0.0033005899 	-0.024094368 	-0.029667798 	0.69883816
0.0033305381 	-0.017707725 	-0.030871508 	0.67647738
0.0033600727 	-0.011266177 	-0.031062047 	0.65534482
0.0033891994 	-0.005319533 	-0.030467167 	0.63692491
0.0034179239 	-0.00030040016 	-0.029063055 	0.62216758
0.0034462517 	0.0035361815 	-0.026705155 	0.61157578
0.0034741882 	0.0060930755 	-0.023261809 	0.60532567
0.003501739 	0.0073415769 	-0.018700623 	0.60339361
0.0035289093 	0.0072896427 	-0.013103301 	0.60555028
0.0035557043 	0.0060133696 	-0.0066064132 	0.6112548
0.0035821293 	0.0036746794 	0.00069204785 	0.61947887
0.0036081894 	0.00061045956 	0.0087832585 	0.62856578
0.0036338895 	-0.0027672105 	0.017687322 	0.63635389
0.0036592348 	-0.0060946562 	0.027344693 	0.64026177
0.00368423 	-0.0089793109 	0.037407153 	0.637784
0.00370888 	-0.011146167 	0.047155798 	0.6269652
0.0037331896 	-0.01243921 	0.055626438 	0.60676901
0.0037571635 	-0.012824179 	0.0618703 	0.57722983
0.0037808063 	-0.012374402 	0.065189074 	0.53934929
0.0038041226 	-0.011248269 	0.065247558 	0.49477506
0.0038271169 	-0.009660756 	0.062092374 	0.44533364
0.0038497936 	-0.007843805 	0.056136027 	0.39255597
0.0038721572 	-0.0060022439 	0.048116366 	0.33738404
0.0038942119 	-0.0042829394 	0.038984042 	0.28018535
0.003915962 	-0.0027716755 	0.029687645 	0.22102238
0.0039374118 	-0.0015199234 	0.020894334 	0.15996335
0.0039585653 	-0.00058624069 	0.012728555 	0.097212459
0.0039794267 	-6.1146129e-05 	0.0046229469 	0.032995832
0.004 	2.7644272e-05 	0.004760672 	0.031814723
