0 	-0.001885368 	0.028095315 	1.0469439
5.5555625e-05 	0.012428099 	0.024353175 	1.0522516
0.00011111111 	0.015987673 	0.020488411 	1.0566554
0.00016666667 	0.017215086 	0.017202729 	1.0602269
0.00022222222 	0.017660916 	0.01416557 	1.0630688
0.00027777778 	0.017818136 	0.011283016 	1.065223
0.00033333333 	0.017828575 	0.0085499452 	1.0666845
0.00038888889 	0.017695197 	0.0059365739 	1.0674769
0.00044444444 	0.01744384 	0.0032870446 	1.067724
0.0005 	0.017235502 	0.00028789386 	1.0676369
0.00055555556 	0.017372758 	-0.0034582894 	1.0674227
0.00061111111 	0.018212442 	-0.0082787877 	1.067165
0.00066666667 	0.020035502 	-0.014281183 	1.0667504
0.00072222222 	0.02295312 	-0.021270738 	1.065869
0.00077777778 	0.026890829 	-0.02875684 	1.0640667
0.00083333333 	0.031622235 	-0.035953534 	1.0607987
0.00088888889 	0.036748975 	-0.04183793 	1.0555803
0.00094444444 	0.041697046 	-0.04555786 	1.0482729
0.001 	0.046027073 	-0.046423974 	1.0388809
0.0010617199 	0.048597868 	-0.043866034 	1.0285782
0.0011225874 	0.048816993 	-0.038770431 	1.0191202
0.0011826143 	0.046888048 	-0.032199054 	1.0113421
0.0012418122 	0.043270282 	-0.025174431 	1.0056133
0.0013001926 	0.03852173 	-0.018355768 	1.0018642
0.0013577668 	0.033235751 	-0.011997998 	0.99979109
0.0014145458 	0.027925802 	-0.0061291301 	0.99898799
0.0014705407 	0.022952457 	-0.00070821563 	0.99897809
0.0015257623 	0.018572634 	0.0042347239 	0.99928787
0.0015802213 	0.014966214 	0.0086492011 	0.99952803
0.0016339282 	0.012261793 	0.012489269 	0.99947069
0.0016868934 	0.010536879 	0.015708724 	0.99911983
0.0017391271 	0.0098062742 	0.018291315 	0.99869699
0.0017906395 	0.010004896 	0.020237316 	0.99853165
0.0018414404 	0.010990335 	0.021649111 	0.99886318
0.0018915398 	0.01251215 	0.022698631 	0.99970393
0.0019409473 	0.014313862 	0.023531068 	1.0009238
0.0019896725 	0.016182457 	0.024109397 	1.0024102
0.0020377248 	0.017890685 	0.024243552 	1.0041581
0.0020851134 	0.019215152 	0.023705945 	1.0061384
0.0021318476 	0.019890341 	0.022296148 	1.0081841
0.0021779364 	0.019624741 	0.019876008 	1.0100308
0.0022233887 	0.018184604 	0.016497948 	1.0114348
0.0022682133 	0.015422701 	0.012470861 	1.0122809
0.0023124189 	0.011299074 	0.0083815915 	1.0126057
0.0023560139 	0.0060183977 	0.0047689846 	1.0125659
0.0023990069 	-0.00015354436 	0.0018014992 	1.0124444
0.0024414062 	-0.0067552568 	-0.00062609564 	1.0126673
0.0024832199 	-0.01318085 	-0.0027505694 	1.0136843
0.0025244562 	-0.018886044 	-0.0045770991 	1.0157399
0.002565123 	-0.023447169 	-0.0057768939 	1.0187633
0.0026052281 	-0.026659859 	-0.0059418705 	1.0224424
0.0026447794 	-0.028455936 	-0.0048915113 	1.0263933
0.0026837845 	-0.028902101 	-0.0026663719 	1.0303209
0.0027222509 	-0.028195772 	0.00052822601 	1.0339663
0.0027601861 	-0.026580652 	0.0044437883 	1.0370979
0.0027975974 	-0.024267394 	0.0088524123 	1.039436
0.002834492 	-0.021490836 	0.013548435 	1.0407311
0.0028708772 	-0.018506978 	0.018318737 	1.0408312
0.0029067598 	-0.01556486 	0.02294473 	1.0397403
0.0029421469 	-0.012932718 	0.027226074 	1.0376706
0.0029770452 	-0.010873256 	0.030991575 	1.0350365
0.0030114616 	-0.0096044459 	0.034119024 	1.0323756
0.0030454028 	-0.0093265282 	0.036534569 	1.0302325
0.0030788752 	-0.010138218 	0.038188789 	1.0289368
0.0031118853 	-0.011920254 	0.039007506 	1.0284507
0.0031444395 	-0.014368627 	0.038836222 	1.0282029
0.0031765442 	-0.016957751 	0.037422939 	1.0270596
0.0032082055 	-0.019067156 	0.034490541 	1.0235669
0.0032394295 	-0.020101374 	0.029802685 	1.0162304
0.0032702223 	-0.019617432 	0.023284822 	1.0038979
0.0033005899 	-0.0174719 	0.015084743 	0.98615044
0.0033305381 	-0.013842707 	0.0055600262 	0.96344504
0.0033600727 	-0.00916024 	-0.0046907416 	0.93712899
0.0033891994 	-0.0039919797 	-0.014886964 	0.90918061
0.0034179239 	0.0010928867 	-0.024256134 	0.88182584
0.0034462517 	0.0056071129 	-0.032155276 	0.85703947
0.0034741882 	0.0092820512 	-0.038228185 	0.83609716
0.003501739 	0.012113258 	-0.042489549 	0.81921029
0.0035289093 	0.01433794 	-0.04527446 	0.80546478
0.0035557043 	0.016325578 	-0.047160452 	0.79311491
0.0035821293 	0.01842761 	-0.048886437 	0.78013723
0.0036081894 	0.020879268 	-0.05126148 	0.7647977
0.0036338895 	0.023752434 	-0.054993804 	0.74596082
0.0036592348 	0.026942444 	-0.060441004 	0.72314656
0.00368423 	0.030151374 	-0.067380712 	0.69647158
0.00370888 	0.032860829 	-0.074969575 	0.66664819
0.0037331896 	0.034371926 	-0.081950613 	0.6350211
0.0037571635 	0.033984706 	-0.08686655 	0.60336923
0.0037808063 	0.03132962 	-0.087967845 	0.57312542
0.0038041226 	0.026691488 	-0.083175169 	0.54406943
0.0038271169 	0.021013423 	-0.071012436 	0.51345879
0.0038497936 	0.015443391 	-0.052298364 	0.47685055
0.0038721572 	0.010753818 	-0.030802786 	0.43032681
0.0038942119 	0.0071306606 	-0.011719155 	0.37219189
0.003915962 	0.0043915467 	0.00097306035 	0.3028402
0.0039374118 	0.0023300623 	0.0061322108 	0.22371552
0.0039585653 	0.00087404259 	0.0052472886 	0.13689488
0.0039794267 	8.5325297e-05 	0.001338723 	0.045591864
0.004 	8.5325297e-05 	0.001338723 	0.045591864
