0 	0.034572333 	0.02249059 	1.0568572
2.0100503e-05 	0.034572333 	0.02249059 	1.0568572
4.0201005e-05 	0.034572333 	0.02249059 	1.0568572
6.0301508e-05 	0.025150902 	0.034710896 	1.05708
8.040201e-05 	0.025150902 	0.034710896 	1.05708
0.00010050251 	0.025150902 	0.034710896 	1.05708
0.00012060302 	0.024050527 	0.036363288 	1.0586174
0.00014070352 	0.024050527 	0.036363288 	1.0586174
0.00016080402 	0.024050527 	0.036363288 	1.0586174
0.00018090452 	0.024502945 	0.035939549 	1.0612173
0.00020100503 	0.024502945 	0.035939549 	1.0612173
0.00022110553 	0.024502945 	0.035939549 	1.0612173
0.00024120603 	0.025026335 	0.034607932 	1.0645331
0.00026130653 	0.025026335 	0.034607932 	1.0645331
0.00028140704 	0.025214982 	0.032822308 	1.0681728
0.00030150754 	0.025214982 	0.032822308 	1.0681728
0.00032160804 	0.025214982 	0.032822308 	1.0681728
0.00034170854 	0.024947014 	0.03081528 	1.0717575
0.00036180905 	0.024947014 	0.03081528 	1.0717575
0.00038190955 	0.024947014 	0.03081528 	1.0717575
0.00040201005 	0.024206047 	0.028681087 	1.0749601
0.00042211055 	0.024206047 	0.028681087 	1.0749601
0.00044221106 	0.024206047 	0.028681087 	1.0749601
0.00046231156 	0.023040405 	0.026423205 	1.0775143
0.00048241206 	0.023040405 	0.026423205 	1.0775143
0.00050251256 	0.021552401 	0.024039256 	1.0792058
0.00052261307 	0.021552401 	0.024039256 	1.0792058
0.00054271357 	0.021552401 	0.024039256 	1.0792058
0.00056281407 	0.019904993 	0.021590782 	1.0798597
0.00058291457 	0.019904993 	0.021590782 	1.0798597
0.00060301508 	0.019904993 	0.021590782 	1.0798597
0.00062311558 	0.018315927 	0.019218381 	1.0793486
0.00064321608 	0.018315927 	0.019218381 	1.0793486
0.00066331658 	0.018315927 	0.019218381 	1.0793486
0.00068341709 	0.017028586 	0.017095384 	1.0776654
0.00070351759 	0.017028586 	0.017095384 	1.0776654
0.00072361809 	0.016227897 	0.015355717 	1.07504
0.00074371859 	0.016227897 	0.015355717 	1.07504
0.0007638191 	0.016227897 	0.015355717 	1.07504
0.0007839196 	0.015999919 	0.014067384 	1.0719543
0.0008040201 	0.015999919 	0.014067384 	1.0719543
0.0008241206 	0.015999919 	0.014067384 	1.0719543
0.00084422111 	0.016256843 	0.013190735 	1.0690171
0.00086432161 	0.016256843 	0.013190735 	1.0690171
0.00088442211 	0.016256843 	0.013190735 	1.0690171
0.00090452261 	0.016897608 	0.012709271 	1.066767
0.00092462312 	0.016897608 	0.012709271 	1.066767
0.00094472362 	0.017679185 	0.012454419 	1.0655543
0.00096482412 	0.017679185 	0.012454419 	1.0655543
0.00098492462 	0.017679185 	0.012454419 	1.0655543
0.0010050251 	0.018545238 	0.012571787 	1.0654185
0.0010251256 	0.018545238 	0.012571787 	1.0654185
0.0010452261 	0.018545238 	0.012571787 	1.0654185
0.0010653266 	0.019541521 	0.012931678 	1.0665258
0.0010854271 	0.019541521 	0.012931678 	1.0665258
0.0011055276 	0.026787854 	0.016436588 	1.0605113
0.0011256281 	0.02728117 	0.017728927 	1.0625087
0.0011457286 	0.02728117 	0.017728927 	1.0625087
0.0011658291 	0.02728117 	0.017728927 	1.0625087
0.0011859296 	0.027908982 	0.019342883 	1.0656219
0.0012060302 	0.027908982 	0.019342883 	1.0656219
0.0012261307 	0.027908982 	0.019342883 	1.0656219
0.0012462312 	0.02882552 	0.021140428 	1.0696652
0.0012663317 	0.02882552 	0.021140428 	1.0696652
0.0012864322 	0.02882552 	0.021140428 	1.0696652
0.0013065327 	0.030063879 	0.02280977 	1.0742489
0.0013266332 	0.030063879 	0.02280977 	1.0742489
0.0013467337 	0.030063879 	0.02280977 	1.0742489
0.0013668342 	0.032003517 	0.023859826 	1.0782108
0.0013869347 	0.032003517 	0.023859826 	1.0782108
0.0014070352 	0.032003517 	0.023859826 	1.0782108
0.0014271357 	0.035242112 	0.02386284 	1.0800248
0.0014472362 	0.035242112 	0.02386284 	1.0800248
0.0014673367 	0.035242112 	0.02386284 	1.0800248
0.0014874372 	0.040030723 	0.022555368 	1.0784654
0.0015075377 	0.040030723 	0.022555368 	1.0784654
0.0015276382 	0.046190485 	0.019709206 	1.0727986
0.0015477387 	0.046190485 	0.019709206 	1.0727986
0.0015678392 	0.046190485 	0.019709206 	1.0727986
0.0015879397 	0.052981495 	0.014926165 	1.0625858
0.0016080402 	0.052981495 	0.014926165 	1.0625858
0.0016281407 	0.052981495 	0.014926165 	1.0625858
0.0016482412 	0.059324397 	0.0078376924 	1.04797
0.0016683417 	0.059324397 	0.0078376924 	1.04797
0.0016884422 	0.063962153 	-0.0014741475 	1.0300535
0.0017085427 	0.063962153 	-0.0014741475 	1.0300535
0.0017286432 	0.063962153 	-0.0014741475 	1.0300535
0.0017487437 	0.065467253 	-0.011875253 	1.0107332
0.0017688442 	0.065467253 	-0.011875253 	1.0107332
0.0017889447 	0.065467253 	-0.011875253 	1.0107332
0.0018090452 	0.062966043 	-0.02112031 	0.99192398
0.0018291457 	0.062966043 	-0.02112031 	0.99192398
0.0018492462 	0.056701542 	-0.026217128 	0.97475009
0.0018693467 	0.056701542 	-0.026217128 	0.97475009
0.0018894472 	0.056701542 	-0.026217128 	0.97475009
0.0019095477 	0.048093227 	-0.02432401 	0.95967821
0.0019296482 	0.048093227 	-0.02432401 	0.95967821
0.0019497487 	0.039032334 	-0.013381606 	0.94716842
0.0019698492 	0.039032334 	-0.013381606 	0.94716842
0.0019899497 	0.039032334 	-0.013381606 	0.94716842
0.0020100503 	0.030707814 	0.0063772899 	0.93691324
0.0020301508 	0.030707814 	0.0063772899 	0.93691324
0.0020502513 	0.023630326 	0.029923072 	0.92676873
0.0020703518 	0.023630326 	0.029923072 	0.92676873
0.0020904523 	0.018212137 	0.048439036 	0.91197467
0.0021105528 	0.018212137 	0.048439036 	0.91197467
0.0021306533 	0.018212137 	0.048439036 	0.91197467
0.0021507538 	0.014687734 	0.054769512 	0.88647429
0.0021708543 	0.014687734 	0.054769512 	0.88647429
0.0021909548 	0.012252017 	0.04768267 	0.84847926
0.0022110553 	0.012252017 	0.04768267 	0.84847926
0.0022311558 	0.0091132216 	0.031439288 	0.80385075
0.0022512563 	0.0091132216 	0.031439288 	0.80385075
0.0022713568 	0.0039210722 	0.011980938 	0.76134238
0.0022914573 	0.0039210722 	0.011980938 	0.76134238
0.0023115578 	0.0039210722 	0.011980938 	0.76134238
0.0023316583 	-0.0036219368 	-0.0065539587 	0.72692948
0.0023517588 	-0.0036219368 	-0.0065539587 	0.72692948
0.0023718593 	-0.013389689 	-0.022882596 	0.70312273
0.0023919598 	-0.013389689 	-0.022882596 	0.70312273
0.0024120603 	-0.024613208 	-0.037126888 	0.68947152
0.0024321608 	-0.024613208 	-0.037126888 	0.68947152
0.0024522613 	-0.035937516 	-0.049756604 	0.68292722
0.0024723618 	-0.035937516 	-0.049756604 	0.68292722
0.0024924623 	-0.046383737 	-0.061277772 	0.67991038
0.0025125628 	-0.046383737 	-0.061277772 	0.67991038
0.0025326633 	-0.05549145 	-0.071676883 	0.67817494
0.0025527638 	-0.05549145 	-0.071676883 	0.67817494
0.0025728643 	-0.063071211 	-0.080625566 	0.67690589
0.0025929648 	-0.063071211 	-0.080625566 	0.67690589
0.0026130653 	-0.068995575 	-0.087737993 	0.67596898
0.0026331658 	-0.068995575 	-0.087737993 	0.67596898
0.0026532663 	-0.073137891 	-0.092740381 	0.67543018
0.0026733668 	-0.073137891 	-0.092740381 	0.67543018
0.0026934673 	-0.075387713 	-0.095515844 	0.67543557
0.0027135678 	-0.075387713 	-0.095515844 	0.67543557
0.0027336683 	-0.075668299 	-0.096086346 	0.67617817
0.0027537688 	-0.075668299 	-0.096086346 	0.67617817
0.0027738693 	-0.073956541 	-0.094586006 	0.67783779
0.0027939698 	-0.073956541 	-0.094586006 	0.67783779
0.0028140704 	-0.070293326 	-0.091230493 	0.68051909
0.0028341709 	-0.070293326 	-0.091230493 	0.68051909
0.0028542714 	-0.064779967 	-0.086281017 	0.68422869
0.0028743719 	-0.057599477 	-0.08003106 	0.68884481
0.0028944724 	-0.057599477 	-0.08003106 	0.68884481
0.0029145729 	-0.049031929 	-0.072779032 	0.69413067
0.0029346734 	-0.049031929 	-0.072779032 	0.69413067
0.0029547739 	-0.039448674 	-0.064802421 	0.699785
0.0029748744 	-0.039448674 	-0.064802421 	0.699785
0.0029949749 	-0.029317718 	-0.056342717 	0.70550816
0.0030150754 	-0.019187079 	-0.04757922 	0.71109465
0.0030351759 	-0.019187079 	-0.04757922 	0.71109465
0.0030552764 	-0.0096671225 	-0.038662218 	0.71642751
0.0030753769 	-0.0096671225 	-0.038662218 	0.71642751
0.0030954774 	-0.0013616147 	-0.029709893 	0.72142733
0.0031155779 	0.0052576129 	-0.02087327 	0.72582607
0.0031356784 	0.0052576129 	-0.02087327 	0.72582607
0.0031557789 	0.010017345 	-0.012273009 	0.72904996
0.0031758794 	0.010017345 	-0.012273009 	0.72904996
0.0031959799 	0.013100337 	-0.0039842332 	0.73021009
0.0032160804 	0.014895985 	0.003960966 	0.72844136
0.0032361809 	0.014895985 	0.003960966 	0.72844136
0.0032562814 	0.015866676 	0.011453827 	0.72345387
0.0032763819 	0.016252262 	0.018211272 	0.71603141
0.0032964824 	0.016252262 	0.018211272 	0.71603141
0.0033165829 	0.015967443 	0.023870453 	0.7078649
0.0033366834 	0.014867101 	0.028302762 	0.70069508
0.0033567839 	0.014867101 	0.028302762 	0.70069508
0.0033768844 	0.013064421 	0.031909727 	0.6954316
0.0033969849 	0.01106761 	0.035313569 	0.69213699
0.0034170854 	0.01106761 	0.035313569 	0.69213699
0.0034371859 	0.0095154075 	0.038672293 	0.69084011
0.0034572864 	0.0087306525 	0.041329271 	0.69227698
0.0034773869 	0.0085246258 	0.042280952 	0.69740635
0.0034974874 	0.0085246258 	0.042280952 	0.69740635
0.0035175879 	0.0083946593 	0.041107038 	0.70583154
0.0035376884 	0.0078717827 	0.038377914 	0.71522706
0.0035577889 	0.0066755556 	0.035110117 	0.72244413
0.0035778894 	0.0066755556 	0.035110117 	0.72244413
0.0035979899 	0.0047223533 	0.03194118 	0.72432523
0.0036180905 	0.0022243309 	0.028613575 	0.71726703
0.003638191 	-0.00024154321 	0.024127649 	0.69728006
0.0036582915 	-0.00024154321 	0.024127649 	0.69728006
0.003678392 	-0.0020120254 	0.017591071 	0.66231336
0.0036984925 	-0.0028643678 	0.0088915491 	0.61455878
0.003718593 	-0.0031036777 	-0.0011857757 	0.56015376
0.0037386935 	-0.0032024866 	-0.011431503 	0.50587722
0.003758794 	-0.0034228097 	-0.020727886 	0.45587781
0.0037788945 	-0.0034228097 	-0.020727886 	0.45587781
0.003798995 	-0.003733488 	-0.02824632 	0.4108373
0.0038190955 	-0.003951447 	-0.033448117 	0.36919306
0.003839196 	-0.0039151443 	-0.036051491 	0.32880818
0.0038592965 	-0.0035763523 	-0.036047602 	0.2880315
0.003879397 	-0.00299342 	-0.033693189 	0.24600382
0.0038994975 	-0.0022778308 	-0.029432391 	0.20253207
0.003919598 	-0.0015426876 	-0.023773118 	0.15786285
0.0039396985 	-0.00087867431 	-0.01719495 	0.11250269
0.003959799 	-0.000357835 	-0.010152144 	0.067078183
0.0039798995 	-4.6397184e-05 	-0.0031611766 	0.022175449
0.004 	-4.6397184e-05 	-0.0031611766 	0.022175449
