0 	-0.014715341 	-0.043153667 	1.0824308
5.5555556e-05 	0.0086719738 	-0.04856979 	1.0763498
0.00011111111 	0.017216217 	-0.049413622 	1.0706409
0.00016666667 	0.021985109 	-0.0496183 	1.0655435
0.00022222222 	0.024665896 	-0.049127064 	1.0613174
0.00027777778 	0.025574794 	-0.047971862 	1.058157
0.00033333333 	0.024770416 	-0.046313693 	1.0561166
0.00038888889 	0.022333779 	-0.044383397 	1.0551096
0.00044444444 	0.018448395 	-0.042392511 	1.0549143
0.0005 	0.013444638 	-0.040431418 	1.0552414
0.00055555556 	0.0077853715 	-0.03842902 	1.0558376
0.00061111111 	0.0019927791 	-0.036149749 	1.0566119
0.00066666667 	-0.0034038392 	-0.03324169 	1.0576757
0.00072222222 	-0.0079358909 	-0.02933036 	1.059234
0.00077777778 	-0.011199558 	-0.024115545 	1.0614147
0.00083333333 	-0.012920287 	-0.017440656 	1.0641993
0.00088888889 	-0.012875684 	-0.0093980048 	1.0674924
0.00094444444 	-0.011269568 	-0.00017416577 	1.0712185
0.001 	-0.0078035628 	0.0098644749 	1.0756878
0.0010617199 	-0.0028493194 	0.0206804 	1.0810367
0.0011225874 	0.0027170743 	0.03058291 	1.0868796
0.0011826143 	0.0085307908 	0.039274217 	1.0927733
0.0012418122 	0.014131292 	0.046389565 	1.0980683
0.0013001926 	0.019169394 	0.051651672 	1.1021308
0.0013577668 	0.023332494 	0.054927563 	1.104456
0.0014145458 	0.026420598 	0.056140242 	1.1047011
0.0014705407 	0.028243702 	0.055216542 	1.1027498
0.0015257623 	0.028493461 	0.052016994 	1.0987001
0.0015802213 	0.026773385 	0.04652334 	1.0925429
0.0016339282 	0.02284195 	0.039059674 	1.0839309
0.0016868934 	0.01678513 	0.030491356 	1.072488
0.0017391271 	0.0091093638 	0.022354779 	1.0583364
0.0017906395 	0.00074749066 	0.016717063 	1.0422189
0.0018414404 	-0.0071781512 	0.015707641 	1.0249634
0.0018915398 	-0.013553332 	0.020814529 	1.0069487
0.0019409473 	-0.01772499 	0.032088608 	0.98790756
0.0019896725 	-0.019875072 	0.047603029 	0.96747277
0.0020377248 	-0.020923027 	0.063437976 	0.94586098
0.0020851134 	-0.022114538 	0.07522898 	0.92412313
0.0021318476 	-0.024297274 	0.080200887 	0.90369252
0.0021779364 	-0.027593055 	0.078078189 	0.88580162
0.0022233887 	-0.03150767 	0.070298385 	0.87143285
0.0022682133 	-0.035258594 	0.058671899 	0.86141165
0.0023124189 	-0.038191807 	0.04515204 	0.85599133
0.0023560139 	-0.039742802 	0.031791947 	0.85425002
0.0023990069 	-0.039671384 	0.019746347 	0.85470797
0.0024414062 	-0.037944456 	0.0089585345 	0.85626368
0.0024832199 	-0.034519901 	-0.0011399083 	0.85834277
0.0025244562 	-0.029458981 	-0.010770285 	0.86062762
0.002565123 	-0.022844088 	-0.019712717 	0.86284992
0.0026052281 	-0.014955309 	-0.027526047 	0.86479098
0.0026447794 	-0.0059203922 	-0.033748422 	0.86627945
0.0026837845 	0.0042375986 	-0.038086832 	0.86730204
0.0027222509 	0.015324115 	-0.040460979 	0.86797483
0.0027601861 	0.027008978 	-0.040935096 	0.86852936
0.0027975974 	0.038647943 	-0.039663386 	0.86939735
0.002834492 	0.049406574 	-0.036719611 	0.87116729
0.0028708772 	0.058268698 	-0.032099432 	0.87427102
0.0029067598 	0.064432422 	-0.025439296 	0.87823992
0.0029421469 	0.067429106 	-0.016318128 	0.88138114
0.0029770452 	0.067267136 	-0.0054175963 	0.88141492
0.0030114616 	0.064236715 	0.0046955208 	0.87598505
0.0030454028 	0.058684042 	0.010665032 	0.86348889
0.0030788752 	0.051318521 	0.010414651 	0.84332333
0.0031118853 	0.043198531 	0.0045639715 	0.81606141
0.0031444395 	0.035190223 	-0.0043436326 	0.78335342
0.0031765442 	0.027364715 	-0.014277868 	0.74877649
0.0032082055 	0.019530507 	-0.024789368 	0.71760531
0.0032394295 	0.012129994 	-0.035759747 	0.69404322
0.0032702223 	0.0058726418 	-0.046023808 	0.67885984
0.0033005899 	0.001003413 	-0.053724482 	0.66999685
0.0033305381 	-0.0025793567 	-0.057462981 	0.66486292
0.0033600727 	-0.0050557656 	-0.056898314 	0.66184411
0.0033891994 	-0.0066830866 	-0.052592988 	0.66036469
0.0034179239 	-0.0076023402 	-0.045447672 	0.6603442
0.0034462517 	-0.0080029111 	-0.036275938 	0.66181269
0.0034741882 	-0.0081156469 	-0.025700409 	0.6647586
0.003501739 	-0.0081655861 	-0.014209161 	0.66904281
0.0035289093 	-0.0083262069 	-0.0022331357 	0.67428192
0.0035557043 	-0.0086012885 	0.0098256754 	0.67967183
0.0035821293 	-0.0089446278 	0.021589616 	0.68390357
0.0036081894 	-0.0092067891 	0.032772577 	0.68533475
0.0036338895 	-0.0091885603 	0.043094406 	0.68226088
0.0036592348 	-0.0088163626 	0.052184073 	0.67326829
0.00368423 	-0.0080307989 	0.059547593 	0.65765708
0.00370888 	-0.0068677423 	0.064571393 	0.63561517
0.0037331896 	-0.0054742571 	0.066610857 	0.60802644
0.0037571635 	-0.0040632464 	0.065157784 	0.57595387
0.0037808063 	-0.0028420182 	0.060070855 	0.54003406
0.0038041226 	-0.0019419899 	0.051735835 	0.50010859
0.0038271169 	-0.0013846511 	0.041101136 	0.45532664
0.0038497936 	-0.0010918991 	0.029536091 	0.40473049
0.0038721572 	-0.00093523396 	0.018539238 	0.34807745
0.0038942119 	-0.0007950413 	0.0093948461 	0.28641946
0.003915962 	-0.00061568033 	0.0029144003 	0.22195081
0.0039374118 	-0.00041040776 	-0.00064853944 	0.15710746
0.0039585653 	-0.00019604496 	-0.0015574663 	0.093442039
0.0039794267 	-2.8113524e-05 	-0.000601849 	0.031085458
0.004 	1.0235233e-05 	0.00011306077 	0.031307008
