0 	-0.011494509 	-0.045608894 	1.0099487
5.5555625e-05 	-0.030752324 	-0.043746804 	0.98955279
0.00011111111 	-0.037158523 	-0.039853094 	0.97403122
0.00016666667 	-0.040564854 	-0.031931262 	0.96350969
0.00022222222 	-0.042675797 	-0.023353459 	0.95691754
0.00027777778 	-0.04387989 	-0.017235528 	0.95341456
0.00033333333 	-0.044024464 	-0.014223646 	0.95230175
0.00038888889 	-0.043032693 	-0.013358392 	0.95250149
0.00044444444 	-0.041073628 	-0.013233854 	0.95283937
0.0005 	-0.03848098 	-0.012639588 	0.95254812
0.00055555556 	-0.035626647 	-0.01087033 	0.95147926
0.00061111111 	-0.032819658 	-0.0077677833 	0.94998684
0.00066666667 	-0.030290103 	-0.003593059 	0.94857637
0.00072222222 	-0.028225936 	0.0011263573 	0.94758836
0.00077777778 	-0.026740549 	0.0058179346 	0.94709283
0.00083333333 	-0.025832594 	0.010064092 	0.94697516
0.00088888889 	-0.025434504 	0.013723007 	0.94707339
0.00094444444 	-0.025556203 	0.016909299 	0.94727834
0.001 	-0.026114683 	0.02009765 	0.94763611
0.0010617199 	-0.027343914 	0.02345119 	0.94822197
0.0011225874 	-0.029307282 	0.026977436 	0.94869631
0.0011826143 	-0.032112707 	0.030808372 	0.94897499
0.0012418122 	-0.035573529 	0.035103233 	0.94911766
0.0013001926 	-0.039112014 	0.039922009 	0.94935373
0.0013577668 	-0.042006633 	0.045281151 	0.94982624
0.0014145458 	-0.043802386 	0.051219826 	0.95030447
0.0014705407 	-0.044651024 	0.057910572 	0.95059289
0.0015257623 	-0.045203199 	0.065384866 	0.95116423
0.0015802213 	-0.04604605 	0.072763395 	0.9525287
0.0016339282 	-0.047058294 	0.078022722 	0.9536038
0.0016868934 	-0.047617439 	0.079099728 	0.95190183
0.0017391271 	-0.047450454 	0.075262867 	0.94565851
0.0017906395 	-0.046788128 	0.067325118 	0.93482272
0.0018414404 	-0.046080033 	0.057047835 	0.92060427
0.0018915398 	-0.04582709 	0.046411893 	0.90495515
0.0019409473 	-0.04634784 	0.037101832 	0.89007804
0.0019896725 	-0.047680896 	0.030140184 	0.87764942
0.0020377248 	-0.049548994 	0.025676811 	0.867836
0.0020851134 	-0.051235907 	0.023052487 	0.85884794
0.0021318476 	-0.051682324 	0.021137634 	0.8476096
0.0021779364 	-0.049920806 	0.018718169 	0.83138398
0.0022233887 	-0.045646125 	0.014782199 	0.80959706
0.0022682133 	-0.039515358 	0.0087185553 	0.7847427
0.0023124189 	-0.03267302 	0.00039552828 	0.76131795
0.0023560139 	-0.026266119 	-0.009969689 	0.74341882
0.0023990069 	-0.020910546 	-0.021785198 	0.73276734
0.0024414062 	-0.016355528 	-0.034273392 	0.72860445
0.0024832199 	-0.01179178 	-0.046631352 	0.7285649
0.0025244562 	-0.006275134 	-0.058076274 	0.72988335
0.002565123 	0.00094473388 	-0.067886268 	0.73023484
0.0026052281 	0.010260917 	-0.075399497 	0.72820447
0.0026447794 	0.021682564 	-0.080077212 	0.7233844
0.0026837845 	0.034794336 	-0.081487154 	0.71622554
0.0027222509 	0.048903132 	-0.079595058 	0.70776569
0.0027601861 	0.06312928 	-0.074492797 	0.69929262
0.0027975974 	0.076280218 	-0.066703039 	0.69204412
0.002834492 	0.087258502 	-0.057038583 	0.6870368
0.0028708772 	0.095083918 	-0.046632364 	0.68490284
0.0029067598 	0.099127604 	-0.036622093 	0.6859734
0.0029421469 	0.0990589 	-0.027560431 	0.69048241
0.0029770452 	0.094922166 	-0.019044332 	0.69832728
0.0030114616 	0.087667437 	-0.010281249 	0.70879223
0.0030454028 	0.078472669 	-0.000840522 	0.72063005
0.0030788752 	0.068494108 	0.0091546065 	0.73267809
0.0031118853 	0.058683128 	0.019228287 	0.74444366
0.0031444395 	0.049538338 	0.0289521 	0.75627341
0.0031765442 	0.041158417 	0.038372039 	0.76921797
0.0032082055 	0.033331537 	0.048429586 	0.78444314
0.0032394295 	0.025796163 	0.061011368 	0.80179592
0.0032702223 	0.018451182 	0.078109771 	0.81746567
0.0033005899 	0.01145493 	0.10025986 	0.8227332
0.0033305381 	0.0043807799 	0.12578304 	0.80889566
0.0033600727 	-0.0036971754 	0.15057169 	0.77646378
0.0033891994 	-0.012472949 	0.16834867 	0.7353629
0.0034179239 	-0.020167672 	0.17427352 	0.69532346
0.0034462517 	-0.025072667 	0.16794359 	0.66076123
0.0034741882 	-0.026803346 	0.15213555 	0.63234164
0.003501739 	-0.026140649 	0.13090548 	0.60915037
0.0035289093 	-0.024129371 	0.10852262 	0.58908532
0.0035557043 	-0.021486503 	0.08836597 	0.56898701
0.0035821293 	-0.018521778 	0.072194497 	0.54556402
0.0036081894 	-0.015329801 	0.060173648 	0.51669321
0.0036338895 	-0.012010673 	0.051382439 	0.48240436
0.0036592348 	-0.0087736543 	0.044538347 	0.44488025
0.00368423 	-0.0058929433 	0.038670466 	0.40734349
0.00370888 	-0.003579536 	0.033409012 	0.37254364
0.0037331896 	-0.0018926644 	0.028852031 	0.341803
0.0037571635 	-0.00074503942 	0.025227062 	0.31494845
0.0037808063 	2.1013839e-05 	0.022667924 	0.29081441
0.0038041226 	0.00054712432 	0.021122778 	0.2678516
0.0038271169 	0.00093664269 	0.020383671 	0.24457944
0.0038497936 	0.0012360205 	0.020162581 	0.21982569
0.0038721572 	0.0014349539 	0.02015252 	0.19280794
0.0038942119 	0.0014965849 	0.020036604 	0.16310779
0.003915962 	0.0013775432 	0.019428205 	0.1306135
0.0039374118 	0.0010591236 	0.017737168 	0.095434745
0.0039585653 	0.00059075499 	0.013978523 	0.057927716
0.0039794267 	0.00011835936 	0.0065939852 	0.019037268
0.004 	0.00011835936 	0.0065939852 	0.019037268
