0 	0.012343899 	0.03999304 	1.0236889
2.0100503e-05 	0.039223469 	-0.0081440684 	1.0282654
4.0201005e-05 	0.039223469 	-0.0081440684 	1.0282654
6.0301508e-05 	0.032246101 	-0.020566068 	1.0324679
8.040201e-05 	0.032246101 	-0.020566068 	1.0324679
0.00010050251 	0.032246101 	-0.020566068 	1.0324679
0.00012060302 	0.030517051 	-0.020226938 	1.0361994
0.00014070352 	0.030517051 	-0.020226938 	1.0361994
0.00016080402 	0.030517051 	-0.020226938 	1.0361994
0.00018090452 	0.030536812 	-0.01790608 	1.039391
0.00020100503 	0.030536812 	-0.01790608 	1.039391
0.00022110553 	0.030536812 	-0.01790608 	1.039391
0.00024120603 	0.031322388 	-0.015280173 	1.0420048
0.00026130653 	0.031322388 	-0.015280173 	1.0420048
0.00028140704 	0.032653693 	-0.012999614 	1.0440331
0.00030150754 	0.032653693 	-0.012999614 	1.0440331
0.00032160804 	0.032653693 	-0.012999614 	1.0440331
0.00034170854 	0.034511254 	-0.011472085 	1.0454929
0.00036180905 	0.034511254 	-0.011472085 	1.0454929
0.00038190955 	0.034511254 	-0.011472085 	1.0454929
0.00040201005 	0.036908246 	-0.010972976 	1.0464066
0.00042211055 	0.036908246 	-0.010972976 	1.0464066
0.00044221106 	0.036908246 	-0.010972976 	1.0464066
0.00046231156 	0.039790891 	-0.011665169 	1.0467736
0.00048241206 	0.039790891 	-0.011665169 	1.0467736
0.00050251256 	0.042953048 	-0.013577868 	1.0465441
0.00052261307 	0.042953048 	-0.013577868 	1.0465441
0.00054271357 	0.042953048 	-0.013577868 	1.0465441
0.00056281407 	0.045999014 	-0.016575622 	1.0455877
0.00058291457 	0.045999014 	-0.016575622 	1.0455877
0.00060301508 	0.045999014 	-0.016575622 	1.0455877
0.00062311558 	0.048328503 	-0.020297177 	1.0436635
0.00064321608 	0.048328503 	-0.020297177 	1.0436635
0.00066331658 	0.048328503 	-0.020297177 	1.0436635
0.00068341709 	0.049166184 	-0.024059151 	1.0404184
0.00070351759 	0.049166184 	-0.024059151 	1.0404184
0.00072361809 	0.047632317 	-0.026804422 	1.0354676
0.00074371859 	0.047632317 	-0.026804422 	1.0354676
0.0007638191 	0.047632317 	-0.026804422 	1.0354676
0.0007839196 	0.042807307 	-0.027213627 	1.028629
0.0008040201 	0.042807307 	-0.027213627 	1.028629
0.0008241206 	0.042807307 	-0.027213627 	1.028629
0.00084422111 	0.034015544 	-0.024213665 	1.0201859
0.00086432161 	0.034015544 	-0.024213665 	1.0201859
0.00088442211 	0.034015544 	-0.024213665 	1.0201859
0.00090452261 	0.021062714 	-0.017773954 	1.0108872
0.00092462312 	0.021062714 	-0.017773954 	1.0108872
0.00094472362 	0.004956283 	-0.0098747947 	1.0013235
0.00096482412 	0.004956283 	-0.0098747947 	1.0013235
0.00098492462 	0.004956283 	-0.0098747947 	1.0013235
0.0010050251 	-0.013253968 	-0.0032831129 	0.99151001
0.0010251256 	-0.013253968 	-0.0032831129 	0.99151001
0.0010452261 	-0.013253968 	-0.0032831129 	0.99151001
0.0010653266 	-0.030337441 	-0.0016857535 	0.98307322
0.0010854271 	-0.030337441 	-0.0016857535 	0.98307322
0.0011055276 	-0.030337441 	-0.0016857535 	0.98307322
0.0011256281 	-0.043019223 	-0.0041129308 	0.97838284
0.0011457286 	-0.043019223 	-0.0041129308 	0.97838284
0.0011658291 	-0.043019223 	-0.0041129308 	0.97838284
0.0011859296 	-0.050981755 	-0.0072332618 	0.97766792
0.0012060302 	-0.050981755 	-0.0072332618 	0.97766792
0.0012261307 	-0.050981755 	-0.0072332618 	0.97766792
0.0012462312 	-0.055053874 	-0.0092497579 	0.97936924
0.0012663317 	-0.055053874 	-0.0092497579 	0.97936924
0.0012864322 	-0.055053874 	-0.0092497579 	0.97936924
0.0013065327 	-0.056262838 	-0.010169674 	0.98167152
0.0013266332 	-0.056262838 	-0.010169674 	0.98167152
0.0013467337 	-0.056262838 	-0.010169674 	0.98167152
0.0013668342 	-0.055365975 	-0.010187274 	0.98343999
0.0013869347 	-0.055365975 	-0.010187274 	0.98343999
0.0014070352 	-0.055365975 	-0.010187274 	0.98343999
0.0014271357 	-0.052903599 	-0.0096218675 	0.98415383
0.0014472362 	-0.052903599 	-0.0096218675 	0.98415383
0.0014673367 	-0.052903599 	-0.0096218675 	0.98415383
0.0014874372 	-0.049287204 	-0.008905544 	0.9832902
0.0015075377 	-0.049287204 	-0.008905544 	0.9832902
0.0015276382 	-0.044921822 	-0.0084322784 	0.98017431
0.0015477387 	-0.044921822 	-0.0084322784 	0.98017431
0.0015678392 	-0.044921822 	-0.0084322784 	0.98017431
0.0015879397 	-0.040238462 	-0.0084943509 	0.97411982
0.0016080402 	-0.040238462 	-0.0084943509 	0.97411982
0.0016281407 	-0.040238462 	-0.0084943509 	0.97411982
0.0016482412 	-0.035656323 	-0.0091775714 	0.96471671
0.0016683417 	-0.035656323 	-0.0091775714 	0.96471671
0.0016884422 	-0.031538766 	-0.010136884 	0.95201448
0.0017085427 	-0.031538766 	-0.010136884 	0.95201448
0.0017286432 	-0.031538766 	-0.010136884 	0.95201448
0.0017487437 	-0.028227614 	-0.010571202 	0.93667394
0.0017688442 	-0.028227614 	-0.010571202 	0.93667394
0.0017889447 	-0.028227614 	-0.010571202 	0.93667394
0.0018090452 	-0.026082169 	-0.009410554 	0.92001204
0.0018291457 	-0.026082169 	-0.009410554 	0.92001204
0.0018492462 	-0.025482167 	-0.0058990312 	0.90390714
0.0018693467 	-0.025482167 	-0.0058990312 	0.90390714
0.0018894472 	-0.025482167 	-0.0058990312 	0.90390714
0.0019095477 	-0.02665434 	-6.1374921e-05 	0.8902832
0.0019296482 	-0.02665434 	-6.1374921e-05 	0.8902832
0.0019497487 	-0.02945083 	0.0073827917 	0.88023062
0.0019698492 	-0.02945083 	0.0073827917 	0.88023062
0.0019899497 	-0.02945083 	0.0073827917 	0.88023062
0.0020100503 	-0.03349411 	0.015638884 	0.87340697
0.0020301508 	-0.03349411 	0.015638884 	0.87340697
0.0020502513 	-0.038145516 	0.024146781 	0.86840982
0.0020703518 	-0.038145516 	0.024146781 	0.86840982
0.0020904523 	-0.042739137 	0.032758429 	0.86378066
0.0021105528 	-0.042739137 	0.032758429 	0.86378066
0.0021306533 	-0.042739137 	0.032758429 	0.86378066
0.0021507538 	-0.046923621 	0.041309091 	0.85898464
0.0021708543 	-0.046923621 	0.041309091 	0.85898464
0.0021909548 	-0.050536901 	0.049290497 	0.85447395
0.0022110553 	-0.050536901 	0.049290497 	0.85447395
0.0022311558 	-0.053457092 	0.055877084 	0.85085623
0.0022512563 	-0.053457092 	0.055877084 	0.85085623
0.0022713568 	-0.055518793 	0.060287945 	0.84798848
0.0022914573 	-0.055518793 	0.060287945 	0.84798848
0.0023115578 	-0.055518793 	0.060287945 	0.84798848
0.0023316583 	-0.056540422 	0.062144664 	0.84467202
0.0023517588 	-0.056540422 	0.062144664 	0.84467202
0.0023718593 	-0.056416504 	0.061657556 	0.83909174
0.0023919598 	-0.056416504 	0.061657556 	0.83909174
0.0024120603 	-0.055179254 	0.059541812 	0.82967515
0.0024321608 	-0.055179254 	0.059541812 	0.82967515
0.0024522613 	-0.052994186 	0.056709405 	0.81584847
0.0024723618 	-0.052994186 	0.056709405 	0.81584847
0.0024924623 	-0.050116957 	0.053933333 	0.79830074
0.0025125628 	-0.050116957 	0.053933333 	0.79830074
0.0025326633 	-0.046847495 	0.051674061 	0.77872668
0.0025527638 	-0.046847495 	0.051674061 	0.77872668
0.0025728643 	-0.043469151 	0.050091873 	0.75925917
0.0025929648 	-0.043469151 	0.050091873 	0.75925917
0.0026130653 	-0.040195444 	0.049153358 	0.74183909
0.0026331658 	-0.040195444 	0.049153358 	0.74183909
0.0026532663 	-0.037139484 	0.048751952 	0.72773294
0.0026733668 	-0.037139484 	0.048751952 	0.72773294
0.0026934673 	-0.034301625 	0.048805529 	0.71734839
0.0027135678 	-0.034301625 	0.048805529 	0.71734839
0.0027336683 	-0.031596183 	0.049302328 	0.71037019
0.0027537688 	-0.031596183 	0.049302328 	0.71037019
0.0027738693 	-0.028884111 	0.050293847 	0.70607413
0.0027939698 	-0.028884111 	0.050293847 	0.70607413
0.0028140704 	-0.025997482 	0.051846885 	0.70362818
0.0028341709 	-0.025997482 	0.051846885 	0.70362818
0.0028542714 	-0.022768089 	0.05399787 	0.70227764
0.0028743719 	-0.019045025 	0.056717658 	0.70141134
0.0028944724 	-0.019045025 	0.056717658 	0.70141134
0.0029145729 	-0.014715243 	0.059878303 	0.70056395
0.0029346734 	-0.014715243 	0.059878303 	0.70056395
0.0029547739 	-0.0097122354 	0.063253307 	0.69941232
0.0029748744 	-0.0097122354 	0.063253307 	0.69941232
0.0029949749 	-0.0040500867 	0.06650369 	0.69776299
0.0030150754 	0.0021672421 	0.069188913 	0.69557733
0.0030351759 	0.0021672421 	0.069188913 	0.69557733
0.0030552764 	0.0087580897 	0.070836347 	0.69293611
0.0030753769 	0.0087580897 	0.070836347 	0.69293611
0.0030954774 	0.015464989 	0.070970986 	0.68995777
0.0031155779 	0.021980216 	0.069169051 	0.68670682
0.0031356784 	0.021980216 	0.069169051 	0.68670682
0.0031557789 	0.02794337 	0.065101718 	0.68330358
0.0031758794 	0.02794337 	0.065101718 	0.68330358
0.0031959799 	0.032890542 	0.058609006 	0.68034877
0.0032160804 	0.036231116 	0.049833139 	0.6793007
0.0032361809 	0.036231116 	0.049833139 	0.6793007
0.0032562814 	0.037438241 	0.039394672 	0.68200425
0.0032763819 	0.036472463 	0.02845498 	0.68913841
0.0032964824 	0.036472463 	0.02845498 	0.68913841
0.0033165829 	0.034089763 	0.018417997 	0.69879322
0.0033366834 	0.031635191 	0.01041303 	0.70684293
0.0033567839 	0.031635191 	0.01041303 	0.70684293
0.0033768844 	0.030328186 	0.0048478692 	0.70924007
0.0033969849 	0.030575128 	0.0013922234 	0.70458806
0.0034170854 	0.030575128 	0.0013922234 	0.70458806
0.0034371859 	0.031664043 	-0.00067930546 	0.69529581
0.0034572864 	0.032095946 	-0.0021175599 	0.68666103
0.0034773869 	0.030410195 	-0.0034607047 	0.68387877
0.0034974874 	0.030410195 	-0.0034607047 	0.68387877
0.0035175879 	0.025961708 	-0.0051630138 	0.68794072
0.0035376884 	0.019475624 	-0.0077926123 	0.69299674
0.0035577889 	0.012831557 	-0.011856449 	0.68799567
0.0035778894 	0.012831557 	-0.011856449 	0.68799567
0.0035979899 	0.0080307994 	-0.017145327 	0.66271197
0.0036180905 	0.0060595532 	-0.022403888 	0.61420866
0.003638191 	0.0064639322 	-0.026004292 	0.54874492
0.0036582915 	0.0064639322 	-0.026004292 	0.54874492
0.003678392 	0.0079150309 	-0.026999923 	0.47788722
0.0036984925 	0.0091397062 	-0.025490215 	0.41235042
0.003718593 	0.0094753942 	-0.022206655 	0.35801917
0.0037386935 	0.0088766819 	-0.017982852 	0.31563236
0.003758794 	0.007655041 	-0.013494787 	0.28272042
0.0037788945 	0.007655041 	-0.013494787 	0.28272042
0.003798995 	0.0061931622 	-0.009234623 	0.25580275
0.0038190955 	0.0047786272 	-0.0055440675 	0.23178781
0.003839196 	0.0035743319 	-0.0026509398 	0.20848827
0.0038592965 	0.0026233003 	-0.00067435726 	0.18459338
0.003879397 	0.0018872175 	0.00037228069 	0.15946253
0.0038994975 	0.0013071984 	0.0005771171 	0.13286234
0.003919598 	0.00083252165 	0.00013363315 	0.10480032
0.0039396985 	0.00043979994 	-0.00063658828 	0.075462505
0.003959799 	0.00014903993 	-0.0012374724 	0.045252505
0.0039798995 	7.0263876e-06 	-0.0009681339 	0.01487471
0.004 	7.0263876e-06 	-0.0009681339 	0.01487471
