0 	-0.022448516 	-0.038687833 	1.0219302
2.0100503e-05 	-0.022448516 	-0.038687833 	1.0219302
4.0201005e-05 	-0.022448516 	-0.038687833 	1.0219302
6.0301508e-05 	-0.035240629 	-0.021651187 	1.0235972
8.040201e-05 	-0.035240629 	-0.021651187 	1.0235972
0.00010050251 	-0.035240629 	-0.021651187 	1.0235972
0.00012060302 	-0.035631379 	-0.014749235 	1.0257753
0.00014070352 	-0.035631379 	-0.014749235 	1.0257753
0.00016080402 	-0.035631379 	-0.014749235 	1.0257753
0.00018090452 	-0.034780165 	-0.010819653 	1.0277471
0.00020100503 	-0.034780165 	-0.010819653 	1.0277471
0.00022110553 	-0.034780165 	-0.010819653 	1.0277471
0.00024120603 	-0.034091995 	-0.0080523126 	1.028837
0.00026130653 	-0.034091995 	-0.0080523126 	1.028837
0.00028140704 	-0.034020914 	-0.005786593 	1.0285296
0.00030150754 	-0.034020914 	-0.005786593 	1.0285296
0.00032160804 	-0.034020914 	-0.005786593 	1.0285296
0.00034170854 	-0.034809053 	-0.003788389 	1.026547
0.00036180905 	-0.034809053 	-0.003788389 	1.026547
0.00038190955 	-0.034809053 	-0.003788389 	1.026547
0.00040201005 	-0.036591672 	-0.0020837484 	1.0229035
0.00042211055 	-0.036591672 	-0.0020837484 	1.0229035
0.00044221106 	-0.036591672 	-0.0020837484 	1.0229035
0.00046231156 	-0.039407485 	-0.00081996114 	1.0179005
0.00048241206 	-0.039407485 	-0.00081996114 	1.0179005
0.00050251256 	-0.043185333 	-8.9992874e-05 	1.0120518
0.00052261307 	-0.043185333 	-8.9992874e-05 	1.0120518
0.00054271357 	-0.043185333 	-8.9992874e-05 	1.0120518
0.00056281407 	-0.047710245 	0.00023597298 	1.0059959
0.00058291457 	-0.047710245 	0.00023597298 	1.0059959
0.00060301508 	-0.047710245 	0.00023597298 	1.0059959
0.00062311558 	-0.052579665 	0.00055578579 	1.0003974
0.00064321608 	-0.052579665 	0.00055578579 	1.0003974
0.00066331658 	-0.052579665 	0.00055578579 	1.0003974
0.00068341709 	-0.057194806 	0.0014055814 	0.99579707
0.00070351759 	-0.057194806 	0.0014055814 	0.99579707
0.00072361809 	-0.060905333 	0.003150797 	0.9924124
0.00074371859 	-0.060905333 	0.003150797 	0.9924124
0.0007638191 	-0.060905333 	0.003150797 	0.9924124
0.0007839196 	-0.063225598 	0.0057338674 	0.99002394
0.0008040201 	-0.063225598 	0.0057338674 	0.99002394
0.0008241206 	-0.063225598 	0.0057338674 	0.99002394
0.00084422111 	-0.063969725 	0.0086965715 	0.98812198
0.00086432161 	-0.063969725 	0.0086965715 	0.98812198
0.00088442211 	-0.063969725 	0.0086965715 	0.98812198
0.00090452261 	-0.063263274 	0.011521603 	0.98624689
0.00092462312 	-0.063263274 	0.011521603 	0.98624689
0.00094472362 	-0.061376156 	0.013876754 	0.98421737
0.00096482412 	-0.061376156 	0.013876754 	0.98421737
0.00098492462 	-0.061376156 	0.013876754 	0.98421737
0.0010050251 	-0.054744847 	0.0072876829 	0.986053
0.0010251256 	-0.058316513 	0.015812875 	0.98195745
0.0010452261 	-0.058316513 	0.015812875 	0.98195745
0.0010653266 	-0.053829536 	0.01749273 	0.97950914
0.0010854271 	-0.053829536 	0.01749273 	0.97950914
0.0011055276 	-0.053829536 	0.01749273 	0.97950914
0.0011256281 	-0.048393389 	0.019001576 	0.97745714
0.0011457286 	-0.048393389 	0.019001576 	0.97745714
0.0011658291 	-0.048393389 	0.019001576 	0.97745714
0.0011859296 	-0.041929 	0.020271378 	0.97589108
0.0012060302 	-0.041929 	0.020271378 	0.97589108
0.0012261307 	-0.041929 	0.020271378 	0.97589108
0.0012462312 	-0.034619831 	0.021269158 	0.97488195
0.0012663317 	-0.034619831 	0.021269158 	0.97488195
0.0012864322 	-0.034619831 	0.021269158 	0.97488195
0.0013065327 	-0.026558299 	0.021726832 	0.97440225
0.0013266332 	-0.026558299 	0.021726832 	0.97440225
0.0013467337 	-0.026558299 	0.021726832 	0.97440225
0.0013668342 	-0.018035252 	0.021441979 	0.9743394
0.0013869347 	-0.018035252 	0.021441979 	0.9743394
0.0014070352 	-0.018035252 	0.021441979 	0.9743394
0.0014271357 	-0.0093621843 	0.020291564 	0.97453848
0.0014472362 	-0.0093621843 	0.020291564 	0.97453848
0.0014673367 	-0.0093621843 	0.020291564 	0.97453848
0.0014874372 	-0.00095312044 	0.018331458 	0.9748439
0.0015075377 	-0.00095312044 	0.018331458 	0.9748439
0.0015276382 	0.0067813362 	0.015795438 	0.97515877
0.0015477387 	0.0067813362 	0.015795438 	0.97515877
0.0015678392 	0.0067813362 	0.015795438 	0.97515877
0.0015879397 	0.01354053 	0.012991672 	0.97548705
0.0016080402 	0.01354053 	0.012991672 	0.97548705
0.0016281407 	0.01354053 	0.012991672 	0.97548705
0.0016482412 	0.019128047 	0.010206967 	0.97592193
0.0016683417 	0.019128047 	0.010206967 	0.97592193
0.0016884422 	0.023468833 	0.007658418 	0.9766035
0.0017085427 	0.023468833 	0.007658418 	0.9766035
0.0017286432 	0.023468833 	0.007658418 	0.9766035
0.0017487437 	0.026625335 	0.0054649721 	0.97765798
0.0017688442 	0.026625335 	0.0054649721 	0.97765798
0.0017889447 	0.026625335 	0.0054649721 	0.97765798
0.0018090452 	0.028750105 	0.0036569619 	0.97912815
0.0018291457 	0.028750105 	0.0036569619 	0.97912815
0.0018492462 	0.030120535 	0.0021599297 	0.98093139
0.0018693467 	0.030120535 	0.0021599297 	0.98093139
0.0018894472 	0.030120535 	0.0021599297 	0.98093139
0.0019095477 	0.03107186 	0.0007974225 	0.98289616
0.0019296482 	0.03107186 	0.0007974225 	0.98289616
0.0019497487 	0.031923878 	-0.00073678388 	0.98481563
0.0019698492 	0.031923878 	-0.00073678388 	0.98481563
0.0019899497 	0.032932484 	-0.0027781646 	0.98656572
0.0020100503 	0.032932484 	-0.0027781646 	0.98656572
0.0020301508 	0.032932484 	-0.0027781646 	0.98656572
0.0020502513 	0.03419614 	-0.0056078835 	0.98810783
0.0020703518 	0.03419614 	-0.0056078835 	0.98810783
0.0020904523 	0.035682332 	-0.0093853344 	0.98941239
0.0021105528 	0.035682332 	-0.0093853344 	0.98941239
0.0021306533 	0.035682332 	-0.0093853344 	0.98941239
0.0021507538 	0.037310784 	-0.014091121 	0.9903803
0.0021708543 	0.037310784 	-0.014091121 	0.9903803
0.0021909548 	0.039002012 	-0.019554114 	0.9908005
0.0022110553 	0.039002012 	-0.019554114 	0.9908005
0.0022311558 	0.040703815 	-0.025486638 	0.99035418
0.0022512563 	0.040703815 	-0.025486638 	0.99035418
0.0022713568 	0.042399018 	-0.031573766 	0.98866201
0.0022914573 	0.042399018 	-0.031573766 	0.98866201
0.0023115578 	0.042399018 	-0.031573766 	0.98866201
0.0023316583 	0.044090201 	-0.037520999 	0.98535939
0.0023517588 	0.044090201 	-0.037520999 	0.98535939
0.0023718593 	0.045774793 	-0.043090376 	0.98017648
0.0023919598 	0.045774793 	-0.043090376 	0.98017648
0.0024120603 	0.047406318 	-0.048112686 	0.97300969
0.0024321608 	0.047406318 	-0.048112686 	0.97300969
0.0024522613 	0.048856374 	-0.052456393 	0.96395847
0.0024723618 	0.048856374 	-0.052456393 	0.96395847
0.0024924623 	0.049876495 	-0.055993291 	0.95334172
0.0025125628 	0.049876495 	-0.055993291 	0.95334172
0.0025326633 	0.050107925 	-0.058640199 	0.941728
0.0025527638 	0.050107925 	-0.058640199 	0.941728
0.0025728643 	0.049143907 	-0.06052144 	0.92997012
0.0025929648 	0.049143907 	-0.06052144 	0.92997012
0.0026130653 	0.046632383 	-0.062101222 	0.91909494
0.0026331658 	0.046632383 	-0.062101222 	0.91909494
0.0026532663 	0.042418607 	-0.064116149 	0.90995569
0.0026733668 	0.042418607 	-0.064116149 	0.90995569
0.0026934673 	0.036683366 	-0.067276628 	0.90282101
0.0027135678 	0.036683366 	-0.067276628 	0.90282101
0.0027336683 	0.029960331 	-0.071841165 	0.89722396
0.0027537688 	0.029960331 	-0.071841165 	0.89722396
0.0027738693 	0.022960721 	-0.077239546 	0.8922258
0.0027939698 	0.022960721 	-0.077239546 	0.8922258
0.0028140704 	0.016369973 	-0.082019151 	0.88692288
0.0028341709 	0.016369973 	-0.082019151 	0.88692288
0.0028542714 	0.010669474 	-0.084259322 	0.88090386
0.0028743719 	0.0060753986 	-0.082289748 	0.87439219
0.0028944724 	0.0060753986 	-0.082289748 	0.87439219
0.0029145729 	0.0025759253 	-0.075332213 	0.86797606
0.0029346734 	0.0025759253 	-0.075332213 	0.86797606
0.0029547739 	7.553405e-05 	-0.063791848 	0.86210438
0.0029748744 	7.553405e-05 	-0.063791848 	0.86210438
0.0029949749 	-0.0014984172 	-0.049098876 	0.85668536
0.0030150754 	-0.0021612109 	-0.033236222 	0.85117536
0.0030351759 	-0.0021612109 	-0.033236222 	0.85117536
0.0030552764 	-0.0018644961 	-0.018187459 	0.84504836
0.0030753769 	-0.0018644961 	-0.018187459 	0.84504836
0.0030954774 	-0.00072909215 	-0.0055063621 	0.83814684
0.0031155779 	0.0011337868 	0.0038225308 	0.83069568
0.0031356784 	0.0011337868 	0.0038225308 	0.83069568
0.0031557789 	0.0036435926 	0.009400563 	0.82309634
0.0031758794 	0.0036435926 	0.009400563 	0.82309634
0.0031959799 	0.0066564004 	0.011306918 	0.81570965
0.0032160804 	0.010093144 	0.0099824272 	0.80871538
0.0032361809 	0.010093144 	0.0099824272 	0.80871538
0.0032562814 	0.013872381 	0.0060777395 	0.80208772
0.0032763819 	0.017908173 	0.00034914942 	0.79563922
0.0032964824 	0.017908173 	0.00034914942 	0.79563922
0.0033165829 	0.022009133 	-0.0064262747 	0.7890718
0.0033366834 	0.02599762 	-0.013568945 	0.78210863
0.0033567839 	0.02599762 	-0.013568945 	0.78210863
0.0033768844 	0.02978427 	-0.020506035 	0.77457288
0.0033969849 	0.033266409 	-0.026802513 	0.7664179
0.0034170854 	0.033266409 	-0.026802513 	0.7664179
0.0034371859 	0.036347809 	-0.032168 	0.75773094
0.0034572864 	0.038952854 	-0.036442267 	0.74872205
0.0034773869 	0.041024015 	-0.039567555 	0.73969972
0.0034974874 	0.041024015 	-0.039567555 	0.73969972
0.0035175879 	0.042516466 	-0.041557201 	0.73104344
0.0035376884 	0.043392651 	-0.042467847 	0.72317804
0.0035577889 	0.043619137 	-0.042380464 	0.7165458
0.0035778894 	0.043619137 	-0.042380464 	0.7165458
0.0035979899 	0.043168132 	-0.041389523 	0.71156508
0.0036180905 	0.042022481 	-0.039594388 	0.70855262
0.003638191 	0.040182094 	-0.037086267 	0.70758396
0.0036582915 	0.040182094 	-0.037086267 	0.70758396
0.003678392 	0.03767204 	-0.033927106 	0.70827612
0.0036984925 	0.034549801 	-0.030130924 	0.70950741
0.003718593 	0.030919117 	-0.025655865 	0.70916636
0.0037386935 	0.026938872 	-0.020419178 	0.7041084
0.003758794 	0.022803548 	-0.014325461 	0.69059582
0.0037788945 	0.022803548 	-0.014325461 	0.69059582
0.003798995 	0.018714324 	-0.0072848366 	0.66538762
0.0038190955 	0.014842593 	0.00075996387 	0.62708776
0.003839196 	0.011284116 	0.009721477 	0.57670714
0.0038592965 	0.0080915114 	0.019092552 	0.51677744
0.003879397 	0.0053344783 	0.027641781 	0.44965103
0.0038994975 	0.0031158847 	0.033526399 	0.3765613
0.003919598 	0.0015252747 	0.034937973 	0.29808363
0.0039396985 	0.00056474248 	0.030856902 	0.215188
0.003959799 	0.0001198001 	0.02141663 	0.12964273
0.0039798995 	6.6738855e-07 	0.0078261517 	0.043341032
0.004 	6.6738855e-07 	0.0078261517 	0.043341032
