0 	-0.022448516 	-0.038687833 	1.0219302
2.0100503e-05 	-0.022448516 	-0.038687833 	1.0219302
4.0201005e-05 	-0.022448516 	-0.038687833 	1.0219302
6.0301508e-05 	-0.0061717082 	-0.044659269 	1.0246844
8.040201e-05 	-0.0061717082 	-0.044659269 	1.0246844
0.00010050251 	-0.0061717082 	-0.044659269 	1.0246844
0.00012060302 	-0.0045652485 	-0.045815741 	1.0259533
0.00014070352 	-0.0045652485 	-0.045815741 	1.0259533
0.00016080402 	-0.0045652485 	-0.045815741 	1.0259533
0.00018090452 	-0.0066259942 	-0.047519362 	1.0248126
0.00020100503 	-0.0066259942 	-0.047519362 	1.0248126
0.00022110553 	-0.0066259942 	-0.047519362 	1.0248126
0.00024120603 	-0.010271003 	-0.05001618 	1.0210248
0.00026130653 	-0.010271003 	-0.05001618 	1.0210248
0.00028140704 	-0.014608869 	-0.052970973 	1.0153734
0.00030150754 	-0.014608869 	-0.052970973 	1.0153734
0.00032160804 	-0.014608869 	-0.052970973 	1.0153734
0.00034170854 	-0.018957986 	-0.055556183 	1.0094599
0.00036180905 	-0.018957986 	-0.055556183 	1.0094599
0.00038190955 	-0.018957986 	-0.055556183 	1.0094599
0.00040201005 	-0.022784518 	-0.056501579 	1.0049997
0.00042211055 	-0.022784518 	-0.056501579 	1.0049997
0.00044221106 	-0.022784518 	-0.056501579 	1.0049997
0.00046231156 	-0.025835049 	-0.054619048 	1.0030695
0.00048241206 	-0.025835049 	-0.054619048 	1.0030695
0.00050251256 	-0.02812795 	-0.049793727 	1.0039755
0.00052261307 	-0.02812795 	-0.049793727 	1.0039755
0.00054271357 	-0.02812795 	-0.049793727 	1.0039755
0.00056281407 	-0.02977072 	-0.043375365 	1.007747
0.00058291457 	-0.02977072 	-0.043375365 	1.007747
0.00060301508 	-0.02977072 	-0.043375365 	1.007747
0.00062311558 	-0.030894464 	-0.037268597 	1.0142992
0.00064321608 	-0.030894464 	-0.037268597 	1.0142992
0.00066331658 	-0.030894464 	-0.037268597 	1.0142992
0.00068341709 	-0.031649993 	-0.032662387 	1.0230025
0.00070351759 	-0.031649993 	-0.032662387 	1.0230025
0.00072361809 	-0.032145271 	-0.029617198 	1.0325737
0.00074371859 	-0.032145271 	-0.029617198 	1.0325737
0.0007638191 	-0.032145271 	-0.029617198 	1.0325737
0.0007839196 	-0.032418648 	-0.027608952 	1.0416605
0.0008040201 	-0.032418648 	-0.027608952 	1.0416605
0.0008241206 	-0.032418648 	-0.027608952 	1.0416605
0.00084422111 	-0.03249653 	-0.026240484 	1.0493769
0.00086432161 	-0.03249653 	-0.026240484 	1.0493769
0.00088442211 	-0.03249653 	-0.026240484 	1.0493769
0.00090452261 	-0.032450454 	-0.02549952 	1.0553635
0.00092462312 	-0.032450454 	-0.02549952 	1.0553635
0.00094472362 	-0.032257972 	-0.025649551 	1.0594995
0.00096482412 	-0.032257972 	-0.025649551 	1.0594995
0.00098492462 	-0.032257972 	-0.025649551 	1.0594995
0.0010050251 	-0.019978682 	-0.025317541 	1.0654761
0.0010251256 	-0.019978682 	-0.025317541 	1.0654761
0.0010452261 	-0.019978682 	-0.025317541 	1.0654761
0.0010653266 	-0.018803233 	-0.027686961 	1.0671971
0.0010854271 	-0.018803233 	-0.027686961 	1.0671971
0.0011055276 	-0.018803233 	-0.027686961 	1.0671971
0.0011256281 	-0.031266824 	-0.034659841 	1.0584311
0.0011457286 	-0.031266824 	-0.034659841 	1.0584311
0.0011658291 	-0.017737709 	-0.031420776 	1.067195
0.0011859296 	-0.016698528 	-0.036378123 	1.0653605
0.0012060302 	-0.016698528 	-0.036378123 	1.0653605
0.0012261307 	-0.016698528 	-0.036378123 	1.0653605
0.0012462312 	-0.01549942 	-0.04218186 	1.0617009
0.0012663317 	-0.01549942 	-0.04218186 	1.0617009
0.0012864322 	-0.01549942 	-0.04218186 	1.0617009
0.0013065327 	-0.014127418 	-0.048488816 	1.0564251
0.0013266332 	-0.014127418 	-0.048488816 	1.0564251
0.0013467337 	-0.014127418 	-0.048488816 	1.0564251
0.0013668342 	-0.012639838 	-0.054979055 	1.0500058
0.0013869347 	-0.012639838 	-0.054979055 	1.0500058
0.0014070352 	-0.012639838 	-0.054979055 	1.0500058
0.0014271357 	-0.011138137 	-0.061339256 	1.0430184
0.0014472362 	-0.011138137 	-0.061339256 	1.0430184
0.0014673367 	-0.011138137 	-0.061339256 	1.0430184
0.0014874372 	-0.0096520079 	-0.067286966 	1.0358644
0.0015075377 	-0.0096520079 	-0.067286966 	1.0358644
0.0015276382 	-0.008133964 	-0.07263685 	1.0286736
0.0015477387 	-0.008133964 	-0.07263685 	1.0286736
0.0015678392 	-0.008133964 	-0.07263685 	1.0286736
0.0015879397 	-0.0065606269 	-0.07739461 	1.0215895
0.0016080402 	-0.0065606269 	-0.07739461 	1.0215895
0.0016281407 	-0.0065606269 	-0.07739461 	1.0215895
0.0016482412 	-0.0050830124 	-0.081655616 	1.0149949
0.0016683417 	-0.0050830124 	-0.081655616 	1.0149949
0.0016884422 	-0.0039380178 	-0.085353926 	1.0092693
0.0017085427 	-0.0039380178 	-0.085353926 	1.0092693
0.0017286432 	-0.0039380178 	-0.085353926 	1.0092693
0.0017487437 	-0.0032323602 	-0.088158641 	1.0043865
0.0017688442 	-0.0032323602 	-0.088158641 	1.0043865
0.0017889447 	-0.0032323602 	-0.088158641 	1.0043865
0.0018090452 	-0.002845527 	-0.089706025 	1.0000345
0.0018291457 	-0.002845527 	-0.089706025 	1.0000345
0.0018492462 	-0.0025247068 	-0.089851771 	0.99612055
0.0018693467 	-0.0025247068 	-0.089851771 	0.99612055
0.0018894472 	-0.0025247068 	-0.089851771 	0.99612055
0.0019095477 	-0.0020086367 	-0.088709514 	0.9927989
0.0019296482 	-0.0020086367 	-0.088709514 	0.9927989
0.0019497487 	-0.0010183501 	-0.086503119 	0.99015746
0.0019698492 	-0.0010183501 	-0.086503119 	0.99015746
0.0019899497 	0.00070385878 	-0.083485052 	0.98801584
0.0020100503 	0.00070385878 	-0.083485052 	0.98801584
0.0020301508 	0.00070385878 	-0.083485052 	0.98801584
0.0020502513 	0.0034446018 	-0.079957376 	0.98603397
0.0020703518 	0.0034446018 	-0.079957376 	0.98603397
0.0020904523 	0.0073505179 	-0.076241518 	0.98398531
0.0021105528 	0.0073505179 	-0.076241518 	0.98398531
0.0021306533 	0.0073505179 	-0.076241518 	0.98398531
0.0021507538 	0.012330776 	-0.072635799 	0.98193656
0.0021708543 	0.012330776 	-0.072635799 	0.98193656
0.0021909548 	0.018115249 	-0.069350961 	0.98030638
0.0022110553 	0.018115249 	-0.069350961 	0.98030638
0.0022311558 	0.024231741 	-0.066497365 	0.97972226
0.0022512563 	0.024231741 	-0.066497365 	0.97972226
0.0022713568 	0.030143965 	-0.064058456 	0.98075421
0.0022914573 	0.030143965 	-0.064058456 	0.98075421
0.0023115578 	0.030143965 	-0.064058456 	0.98075421
0.0023316583 	0.035410266 	-0.061907681 	0.98367271
0.0023517588 	0.035410266 	-0.061907681 	0.98367271
0.0023718593 	0.039776831 	-0.059911219 	0.98831741
0.0023919598 	0.039776831 	-0.059911219 	0.98831741
0.0024120603 	0.043189103 	-0.057954237 	0.99419015
0.0024321608 	0.043189103 	-0.057954237 	0.99419015
0.0024522613 	0.045753233 	-0.055978016 	1.0006253
0.0024723618 	0.045753233 	-0.055978016 	1.0006253
0.0024924623 	0.047630189 	-0.053967367 	1.007
0.0025125628 	0.047630189 	-0.053967367 	1.007
0.0025326633 	0.0489601 	-0.051943136 	1.0128474
0.0025527638 	0.0489601 	-0.051943136 	1.0128474
0.0025728643 	0.049849685 	-0.049940091 	1.0178755
0.0025929648 	0.049849685 	-0.049940091 	1.0178755
0.0026130653 	0.050371505 	-0.048011435 	1.0219892
0.0026331658 	0.050371505 	-0.048011435 	1.0219892
0.0026532663 	0.05054214 	-0.046197476 	1.0252343
0.0026733668 	0.05054214 	-0.046197476 	1.0252343
0.0026934673 	0.05034005 	-0.044526652 	1.0277128
0.0027135678 	0.05034005 	-0.044526652 	1.0277128
0.0027336683 	0.049754753 	-0.042951855 	1.0294847
0.0027537688 	0.049754753 	-0.042951855 	1.0294847
0.0027738693 	0.048870072 	-0.041270433 	1.0303529
0.0027939698 	0.048870072 	-0.041270433 	1.0303529
0.0028140704 	0.04791924 	-0.039111192 	1.0297458
0.0028341709 	0.04791924 	-0.039111192 	1.0297458
0.0028542714 	0.047240505 	-0.036065821 	1.0269488
0.0028743719 	0.047107464 	-0.031942902 	1.0216882
0.0028944724 	0.047107464 	-0.031942902 	1.0216882
0.0029145729 	0.047504315 	-0.026922532 	1.0145535
0.0029346734 	0.047504315 	-0.026922532 	1.0145535
0.0029547739 	0.048141822 	-0.021436828 	1.0068111
0.0029748744 	0.048141822 	-0.021436828 	1.0068111
0.0029949749 	0.04864618 	-0.015952605 	0.99977641
0.0030150754 	0.048720016 	-0.010823422 	0.99431722
0.0030351759 	0.048720016 	-0.010823422 	0.99431722
0.0030552764 	0.048211595 	-0.0062523296 	0.99073934
0.0030753769 	0.048211595 	-0.0062523296 	0.99073934
0.0030954774 	0.047105247 	-0.0023465002 	0.98892568
0.0031155779 	0.045477465 	0.00083015939 	0.98851763
0.0031356784 	0.045477465 	0.00083015939 	0.98851763
0.0031557789 	0.043464381 	0.0032516608 	0.98895942
0.0031758794 	0.043464381 	0.0032516608 	0.98895942
0.0031959799 	0.041253909 	0.0049805356 	0.98940189
0.0032160804 	0.039096987 	0.0062429666 	0.98862668
0.0032361809 	0.039096987 	0.0062429666 	0.98862668
0.0032562814 	0.037243569 	0.007374874 	0.98518281
0.0032763819 	0.035825318 	0.0085280102 	0.97791814
0.0032964824 	0.035825318 	0.0085280102 	0.97791814
0.0033165829 	0.034727539 	0.0093494662 	0.96660947
0.0033366834 	0.033494819 	0.0090190446 	0.95219162
0.0033567839 	0.033494819 	0.0090190446 	0.95219162
0.0033768844 	0.031432014 	0.0067989912 	0.93653811
0.0033969849 	0.027853472 	0.0028326752 	0.92196009
0.0034170854 	0.027853472 	0.0028326752 	0.92196009
0.0034371859 	0.022654346 	-0.001316441 	0.910251
0.0034572864 	0.016412224 	-0.0031236642 	0.90128056
0.0034773869 	0.010104753 	-0.00047898858 	0.89252852
0.0034974874 	0.010104753 	-0.00047898858 	0.89252852
0.0035175879 	0.0048094664 	0.0069134101 	0.88057668
0.0035376884 	0.0012270133 	0.017255672 	0.86324353
0.0035577889 	-0.0004432034 	0.027612064 	0.84047363
0.0035778894 	-0.0004432034 	0.027612064 	0.84047363
0.0035979899 	-0.00038769282 	0.035304724 	0.8137131
0.0036180905 	0.00091777254 	0.038902245 	0.78481332
0.003638191 	0.0027953149 	0.038566021 	0.75520751
0.0036582915 	0.0027953149 	0.038566021 	0.75520751
0.003678392 	0.0045115441 	0.035936814 	0.72536879
0.0036984925 	0.0054943684 	0.033659371 	0.69433152
0.003718593 	0.0055453813 	0.034397513 	0.65954119
0.0037386935 	0.0048657355 	0.03947781 	0.61769211
0.003758794 	0.0038509941 	0.048008141 	0.56662903
0.0037788945 	0.0038509941 	0.048008141 	0.56662903
0.003798995 	0.0028475724 	0.057398611 	0.50705762
0.0038190955 	0.002049474 	0.064914768 	0.44251232
0.003839196 	0.0015049042 	0.068904566 	0.37758914
0.0038592965 	0.0011510539 	0.068965109 	0.31592127
0.003879397 	0.00087507021 	0.065475955 	0.25910644
0.0038994975 	0.00059253555 	0.059096331 	0.20680232
0.003919598 	0.00029733675 	0.05039799 	0.15763525
0.0039396985 	5.3933225e-05 	0.039595799 	0.11032167
0.003959799 	-6.6689787e-05 	0.026399154 	0.064436332
0.0039798995 	-2.2764507e-05 	0.01008082 	0.020540929
0.004 	-2.2764507e-05 	0.01008082 	0.020540929
