0 	0.026707633 	0.02608038 	1.0085412
2.0100503e-05 	0.026707633 	0.02608038 	1.0085412
4.0201005e-05 	0.026707633 	0.02608038 	1.0085412
6.0301508e-05 	0.03777125 	0.0099088422 	1.0111018
8.040201e-05 	0.03777125 	0.0099088422 	1.0111018
0.00010050251 	0.03777125 	0.0099088422 	1.0111018
0.00012060302 	0.04010272 	0.0040793799 	1.0131214
0.00014070352 	0.04010272 	0.0040793799 	1.0131214
0.00016080402 	0.04010272 	0.0040793799 	1.0131214
0.00018090452 	0.040983376 	0.0012744686 	1.014995
0.00020100503 	0.040983376 	0.0012744686 	1.014995
0.00022110553 	0.038026602 	-0.0087739713 	1.0123591
0.00024120603 	0.037774532 	-0.0072704642 	1.0142933
0.00026130653 	0.037774532 	-0.0072704642 	1.0142933
0.00028140704 	0.040627084 	-0.0010254058 	1.0195708
0.00030150754 	0.036991772 	-0.0060112746 	1.0169288
0.00032160804 	0.036991772 	-0.0060112746 	1.0169288
0.00034170854 	0.035797791 	-0.0051063739 	1.0203128
0.00036180905 	0.035797791 	-0.0051063739 	1.0203128
0.00038190955 	0.039662519 	-0.0016407163 	1.0225848
0.00040201005 	0.038334706 	-0.0023902202 	1.0260824
0.00042211055 	0.038334706 	-0.0023902202 	1.0260824
0.00044221106 	0.038334706 	-0.0023902202 	1.0260824
0.00046231156 	0.036798479 	-0.0035307228 	1.0300132
0.00048241206 	0.036798479 	-0.0035307228 	1.0300132
0.00050251256 	0.035222868 	-0.0051925263 	1.0343809
0.00052261307 	0.035222868 	-0.0051925263 	1.0343809
0.00054271357 	0.035222868 	-0.0051925263 	1.0343809
0.00056281407 	0.03376029 	-0.0073421192 	1.0392296
0.00058291457 	0.03376029 	-0.0073421192 	1.0392296
0.00060301508 	0.03376029 	-0.0073421192 	1.0392296
0.00062311558 	0.03248981 	-0.0097986162 	1.0445258
0.00064321608 	0.03248981 	-0.0097986162 	1.0445258
0.00066331658 	0.028942954 	-0.010271293 	1.0458604
0.00068341709 	0.028127609 	-0.012558116 	1.0515926
0.00070351759 	0.028127609 	-0.012558116 	1.0515926
0.00072361809 	0.027419655 	-0.01464153 	1.0564964
0.00074371859 	0.027419655 	-0.01464153 	1.0564964
0.0007638191 	0.027419655 	-0.01464153 	1.0564964
0.0007839196 	0.029375789 	-0.016443056 	1.0592181
0.0008040201 	0.029375789 	-0.016443056 	1.0592181
0.0008241206 	0.029375789 	-0.016443056 	1.0592181
0.00084422111 	0.028187149 	-0.017793764 	1.0615642
0.00086432161 	0.028187149 	-0.017793764 	1.0615642
0.00088442211 	0.028187149 	-0.017793764 	1.0615642
0.00090452261 	0.024574871 	-0.017975664 	1.0606204
0.00092462312 	0.024574871 	-0.017975664 	1.0606204
0.00094472362 	0.023122417 	-0.017981367 	1.0577063
0.00096482412 	0.023122417 	-0.017981367 	1.0577063
0.00098492462 	0.023122417 	-0.017981367 	1.0577063
0.0010050251 	0.021198452 	-0.017330728 	1.0523563
0.0010251256 	0.02308725 	-0.018730719 	1.0544778
0.0010452261 	0.02308725 	-0.018730719 	1.0544778
0.0010653266 	0.020831409 	-0.017975492 	1.0467337
0.0010854271 	0.020831409 	-0.017975492 	1.0467337
0.0011055276 	0.020831409 	-0.017975492 	1.0467337
0.0011256281 	0.018427102 	-0.016370383 	1.037459
0.0011457286 	0.018427102 	-0.016370383 	1.037459
0.0011658291 	0.018427102 	-0.016370383 	1.037459
0.0011859296 	0.015793726 	-0.013463945 	1.0282836
0.0012060302 	0.015793726 	-0.013463945 	1.0282836
0.0012261307 	0.015793726 	-0.013463945 	1.0282836
0.0012462312 	0.012732391 	-0.0088375068 	1.0210258
0.0012663317 	0.012732391 	-0.0088375068 	1.0210258
0.0012864322 	0.012732391 	-0.0088375068 	1.0210258
0.0013065327 	0.0090964207 	-0.0025066585 	1.0168687
0.0013266332 	0.0090964207 	-0.0025066585 	1.0168687
0.0013467337 	0.0090964207 	-0.0025066585 	1.0168687
0.0013668342 	0.0048555073 	0.004922383 	1.0159534
0.0013869347 	0.0048555073 	0.004922383 	1.0159534
0.0014070352 	0.0048555073 	0.004922383 	1.0159534
0.0014271357 	5.6772026e-05 	0.012672755 	1.0176281
0.0014472362 	5.6772026e-05 	0.012672755 	1.0176281
0.0014673367 	5.6772026e-05 	0.012672755 	1.0176281
0.0014874372 	-0.0052106946 	0.020243888 	1.020831
0.0015075377 	-0.0052106946 	0.020243888 	1.020831
0.0015276382 	-0.010832376 	0.027594425 	1.0242967
0.0015477387 	-0.010832376 	0.027594425 	1.0242967
0.0015678392 	-0.010832376 	0.027594425 	1.0242967
0.0015879397 	-0.016667586 	0.0348606 	1.0266966
0.0016080402 	-0.016667586 	0.0348606 	1.0266966
0.0016281407 	-0.016667586 	0.0348606 	1.0266966
0.0016482412 	-0.02267372 	0.042040146 	1.026845
0.0016683417 	-0.02267372 	0.042040146 	1.026845
0.0016884422 	-0.028915124 	0.049067598 	1.0239099
0.0017085427 	-0.028915124 	0.049067598 	1.0239099
0.0017286432 	-0.028915124 	0.049067598 	1.0239099
0.0017487437 	-0.035352046 	0.056173665 	1.0174193
0.0017688442 	-0.035352046 	0.056173665 	1.0174193
0.0017889447 	-0.035352046 	0.056173665 	1.0174193
0.0018090452 	-0.041689901 	0.063992717 	1.0070531
0.0018291457 	-0.041689901 	0.063992717 	1.0070531
0.0018492462 	-0.04756684 	0.072852946 	0.9925787
0.0018693467 	-0.04756684 	0.072852946 	0.9925787
0.0018894472 	-0.04756684 	0.072852946 	0.9925787
0.0019095477 	-0.052973677 	0.081888482 	0.97414961
0.0019296482 	-0.052973677 	0.081888482 	0.97414961
0.0019497487 	-0.058262259 	0.089284873 	0.95250335
0.0019698492 	-0.058262259 	0.089284873 	0.95250335
0.0019899497 	-0.06361004 	0.093958122 	0.92876872
0.0020100503 	-0.06361004 	0.093958122 	0.92876872
0.0020301508 	-0.06361004 	0.093958122 	0.92876872
0.0020502513 	-0.068750729 	0.096803141 	0.90480904
0.0020703518 	-0.068750729 	0.096803141 	0.90480904
0.0020904523 	-0.073366019 	0.10003681 	0.88386654
0.0021105528 	-0.073366019 	0.10003681 	0.88386654
0.0021306533 	-0.073366019 	0.10003681 	0.88386654
0.0021507538 	-0.077389208 	0.10541043 	0.86941599
0.0021708543 	-0.077389208 	0.10541043 	0.86941599
0.0021909548 	-0.080665391 	0.11360643 	0.86255488
0.0022110553 	-0.080665391 	0.11360643 	0.86255488
0.0022311558 	-0.082756928 	0.12466467 	0.86134664
0.0022512563 	-0.082756928 	0.12466467 	0.86134664
0.0022713568 	-0.083324859 	0.13786253 	0.86247863
0.0022914573 	-0.083324859 	0.13786253 	0.86247863
0.0023115578 	-0.083324859 	0.13786253 	0.86247863
0.0023316583 	-0.082357493 	0.1514035 	0.86299387
0.0023517588 	-0.082357493 	0.1514035 	0.86299387
0.0023718593 	-0.080033771 	0.1629791 	0.8611257
0.0023919598 	-0.080033771 	0.1629791 	0.8611257
0.0024120603 	-0.076528122 	0.17083434 	0.85633261
0.0024321608 	-0.076528122 	0.17083434 	0.85633261
0.0024522613 	-0.071971752 	0.17430668 	0.84880398
0.0024723618 	-0.071971752 	0.17430668 	0.84880398
0.0024924623 	-0.066513653 	0.1736157 	0.83898543
0.0025125628 	-0.066513653 	0.1736157 	0.83898543
0.0025326633 	-0.060364163 	0.16948646 	0.82733743
0.0025527638 	-0.060364163 	0.16948646 	0.82733743
0.0025728643 	-0.053749939 	0.16289465 	0.81425734
0.0025929648 	-0.053749939 	0.16289465 	0.81425734
0.0026130653 	-0.046867933 	0.15487166 	0.80006938
0.0026331658 	-0.046867933 	0.15487166 	0.80006938
0.0026532663 	-0.039916481 	0.1462623 	0.78518807
0.0026733668 	-0.039916481 	0.1462623 	0.78518807
0.0026934673 	-0.033168907 	0.13760491 	0.77028861
0.0027135678 	-0.033168907 	0.13760491 	0.77028861
0.0027336683 	-0.026944686 	0.12915196 	0.75633363
0.0027537688 	-0.026944686 	0.12915196 	0.75633363
0.0027738693 	-0.021568694 	0.12101587 	0.74442284
0.0027939698 	-0.021568694 	0.12101587 	0.74442284
0.0028140704 	-0.01733513 	0.11328734 	0.73557421
0.0028341709 	-0.01733513 	0.11328734 	0.73557421
0.0028542714 	-0.014420557 	0.10611271 	0.7305499
0.0028743719 	-0.012865608 	0.099642344 	0.72973567
0.0028944724 	-0.012865608 	0.099642344 	0.72973567
0.0029145729 	-0.012572591 	0.093878052 	0.73305642
0.0029346734 	-0.012572591 	0.093878052 	0.73305642
0.0029547739 	-0.01330397 	0.088501158 	0.73995171
0.0029748744 	-0.01330397 	0.088501158 	0.73995171
0.0029949749 	-0.014721729 	0.082870166 	0.74948073
0.0030150754 	-0.016434767 	0.076269463 	0.76055367
0.0030351759 	-0.016434767 	0.076269463 	0.76055367
0.0030552764 	-0.01805515 	0.068274895 	0.77214602
0.0030753769 	-0.01805515 	0.068274895 	0.77214602
0.0030954774 	-0.019290481 	0.058952192 	0.7834033
0.0031155779 	-0.020009469 	0.048776572 	0.79364158
0.0031356784 	-0.020009469 	0.048776572 	0.79364158
0.0031557789 	-0.020253937 	0.03842291 	0.80233497
0.0031758794 	-0.020253937 	0.03842291 	0.80233497
0.0031959799 	-0.020190161 	0.028585966 	0.809123
0.0032160804 	-0.020030034 	0.019879472 	0.81381482
0.0032361809 	-0.020030034 	0.019879472 	0.81381482
0.0032562814 	-0.019965082 	0.012765009 	0.81635473
0.0032763819 	-0.020101354 	0.0074859875 	0.81672815
0.0032964824 	-0.020101354 	0.0074859875 	0.81672815
0.0033165829 	-0.020410504 	0.0040025088 	0.81482856
0.0033366834 	-0.020737873 	0.0019650082 	0.8103528
0.0033567839 	-0.020737873 	0.0019650082 	0.8103528
0.0033768844 	-0.020870317 	0.00076247932 	0.80280664
0.0033969849 	-0.020583059 	-0.00033157878 	0.79164888
0.0034170854 	-0.020583059 	-0.00033157878 	0.79164888
0.0034371859 	-0.019711566 	-0.001951131 	0.77651248
0.0034572864 	-0.018237779 	-0.0044366681 	0.75738947
0.0034773869 	-0.016291502 	-0.0077029171 	0.73470983
0.0034974874 	-0.016291502 	-0.0077029171 	0.73470983
0.0035175879 	-0.014106361 	-0.011248188 	0.70930088
0.0035376884 	-0.011951151 	-0.014311099 	0.68225508
0.0035577889 	-0.010057009 	-0.016120897 	0.65471892
0.0035778894 	-0.010057009 	-0.016120897 	0.65471892
0.0035979899 	-0.0085555708 	-0.01614695 	0.62759896
0.0036180905 	-0.0074469881 	-0.014254159 	0.60125466
0.003638191 	-0.0066148344 	-0.010717954 	0.57534729
0.0036582915 	-0.0066148344 	-0.010717954 	0.57534729
0.003678392 	-0.0058914588 	-0.0061094887 	0.54898896
0.0036984925 	-0.0051358318 	-0.0011084376 	0.52113739
0.003718593 	-0.0042930502 	0.0036775823 	0.49100912
0.0037386935 	-0.0033922769 	0.0078210051 	0.4583202
0.003758794 	-0.0025073041 	0.011083899 	0.4232657
0.0037788945 	-0.0025073041 	0.011083899 	0.4232657
0.003798995 	-0.0017203953 	0.013372998 	0.38632318
0.0038190955 	-0.001089787 	0.014684728 	0.34802261
0.003839196 	-0.00063750518 	0.015076437 	0.30877155
0.0038592965 	-0.00035187487 	0.014659325 	0.26879267
0.003879397 	-0.00019869569 	0.013589878 	0.22817246
0.0038994975 	-0.00013274038 	0.0120433 	0.18697165
0.003919598 	-0.00010716267 	0.010167522 	0.14532893
0.0039396985 	-8.5483927e-05 	0.0080236084 	0.10350507
0.003959799 	-5.1038464e-05 	0.0055142145 	0.061836991
0.0039798995 	-8.6196001e-06 	0.002298324 	0.020584352
0.004 	-8.6196001e-06 	0.002298324 	0.020584352
