0 	-0.038481838 	-0.092477135 	0.93611399
5.5555556e-05 	0.011209877 	-0.099931647 	0.93561376
0.00011111111 	0.028152455 	-0.094116153 	0.93603787
0.00016666667 	0.03790597 	-0.085471841 	0.9382139
0.00022222222 	0.045130922 	-0.074235871 	0.9430529
0.00027777778 	0.051416619 	-0.060396531 	0.95091871
0.00033333333 	0.057424036 	-0.044281413 	0.9609766
0.00038888889 	0.063204851 	-0.026828683 	0.97132168
0.00044444444 	0.068391045 	-0.0094671571 	0.97996541
0.0005 	0.072498555 	0.0062951776 	0.98569575
0.00055555556 	0.075176115 	0.01929105 	0.98820388
0.00061111111 	0.076288498 	0.028882425 	0.98776054
0.00066666667 	0.075872551 	0.034948243 	0.9848929
0.00072222222 	0.074019332 	0.03778389 	0.9802572
0.00077777778 	0.070776695 	0.038004557 	0.97474527
0.00083333333 	0.066222284 	0.036493124 	0.96951375
0.00088888889 	0.060473263 	0.034246032 	0.96582775
0.00094444444 	0.053997898 	0.032289506 	0.96452322
0.001 	0.047042041 	0.031227559 	0.96596318
0.0010617199 	0.040987324 	0.032102113 	0.9694407
0.0011225874 	0.037258535 	0.034965565 	0.97319532
0.0011826143 	0.036227609 	0.039332824 	0.97605245
0.0012418122 	0.037555135 	0.044338161 	0.97782939
0.0013001926 	0.040472267 	0.049322794 	0.9789905
0.0013577668 	0.044168634 	0.053986756 	0.98011668
0.0014145458 	0.047856478 	0.058234148 	0.98151415
0.0014705407 	0.050954506 	0.062094176 	0.98324522
0.0015257623 	0.053270187 	0.06540207 	0.98545179
0.0015802213 	0.054974091 	0.068069224 	0.98824266
0.0016339282 	0.056537735 	0.07010846 	0.99154091
0.0016868934 	0.058471809 	0.071544295 	0.99505933
0.0017391271 	0.06115111 	0.072192557 	0.99852143
0.0017906395 	0.064885362 	0.071774894 	1.0018653
0.0018414404 	0.069823155 	0.070189946 	1.0052067
0.0018915398 	0.075881813 	0.067676247 	1.008611
0.0019409473 	0.082733101 	0.064528882 	1.0118217
0.0019896725 	0.089759859 	0.060590998 	1.0142315
0.0020377248 	0.096072238 	0.055001185 	1.0149684
0.0020851134 	0.10065785 	0.046730248 	1.0137116
0.0021318476 	0.10252758 	0.035434557 	1.0119189
0.0021779364 	0.10100634 	0.022205752 	1.0124206
0.0022233887 	0.096335976 	0.0087246181 	1.0159682
0.0022682133 	0.089897911 	-0.0035291877 	1.0205007
0.0023124189 	0.083261215 	-0.013625731 	1.023703
0.0023560139 	0.077390164 	-0.020820617 	1.0245515
0.0023990069 	0.072707706 	-0.024563413 	1.0230981
0.0024414062 	0.069254604 	-0.024686883 	1.0199226
0.0024832199 	0.06691829 	-0.021571887 	1.0157228
0.0025244562 	0.065477996 	-0.016086991 	1.0110479
0.002565123 	0.064760816 	-0.0092202832 	1.0062403
0.0026052281 	0.064660858 	-0.0017625589 	1.0015013
0.0026447794 	0.0651953 	0.0057846731 	0.99692496
0.0026837845 	0.06645329 	0.013151702 	0.99254213
0.0027222509 	0.068425289 	0.020279552 	0.98849947
0.0027601861 	0.070979796 	0.027165869 	0.98482153
0.0027975974 	0.073969493 	0.033756763 	0.98145288
0.002834492 	0.077253757 	0.039922065 	0.97827401
0.0028708772 	0.080670973 	0.045502531 	0.97512914
0.0029067598 	0.084069073 	0.050332632 	0.97185016
0.0029421469 	0.087304909 	0.054268409 	0.96828599
0.0029770452 	0.090248295 	0.057199772 	0.9643123
0.0030114616 	0.092789218 	0.059084662 	0.95984778
0.0030454028 	0.094828162 	0.059939525 	0.95483201
0.0030788752 	0.096286956 	0.059851774 	0.94926452
0.0031118853 	0.097072523 	0.058975792 	0.94318099
0.0031444395 	0.097093761 	0.057519913 	0.93664048
0.0031765442 	0.09625865 	0.055714436 	0.92971258
0.0032082055 	0.094480266 	0.053787772 	0.92248011
0.0032394295 	0.091704266 	0.051917235 	0.91503722
0.0032702223 	0.087905463 	0.050210528 	0.90751266
0.0033005899 	0.083070747 	0.048663814 	0.90011162
0.0033305381 	0.077225914 	0.047154044 	0.89313582
0.0033600727 	0.070442831 	0.045424427 	0.88697451
0.0033891994 	0.062824416 	0.043133339 	0.8819832
0.0034179239 	0.054567699 	0.039973938 	0.87824865
0.0034462517 	0.045960807 	0.035830484 	0.87533635
0.0034741882 	0.03728967 	0.031018161 	0.87235124
0.003501739 	0.028699721 	0.026536536 	0.8687337
0.0035289093 	0.01995745 	0.024128888 	0.86559265
0.0035557043 	0.010489644 	0.025734237 	0.86595506
0.0035821293 	-8.6030973e-05 	0.032107656 	0.8718587
0.0036081894 	-0.011087046 	0.04137053 	0.87921082
0.0036338895 	-0.020545625 	0.049157245 	0.87575114
0.0036592348 	-0.026226519 	0.051013128 	0.84666927
0.00368423 	-0.027030539 	0.045418832 	0.78474932
0.00370888 	-0.023716283 	0.034789883 	0.6962194
0.0037331896 	-0.018308282 	0.023571063 	0.59698643
0.0037571635 	-0.012836564 	0.015304152 	0.50311639
0.0037808063 	-0.008480333 	0.011080286 	0.42379388
0.0038041226 	-0.005480703 	0.0099472121 	0.3604731
0.0038271169 	-0.003538165 	0.010185328 	0.30998771
0.0038497936 	-0.0022258574 	0.010341591 	0.26799438
0.0038721572 	-0.0012453035 	0.0096122843 	0.23073137
0.0038942119 	-0.00046915297 	0.0078082749 	0.19538781
0.003915962 	0.00012462372 	0.0051887553 	0.15980486
0.0039374118 	0.00045487053 	0.0023740383 	0.12199004
0.0039585653 	0.00046488508 	0.00028371083 	0.079632416
0.0039794267 	0.00014251107 	-0.00021772829 	0.029905649
0.004 	8.5254151e-05 	-0.0038452499 	0.0265289
