0 	-0.017278487 	0.039319552 	1.0340013
2.0100503e-05 	-0.040396433 	-0.011102436 	1.0327624
4.0201005e-05 	-0.040396433 	-0.011102436 	1.0327624
6.0301508e-05 	-0.035297635 	-0.021276566 	1.0290436
8.040201e-05 	-0.035297635 	-0.021276566 	1.0290436
0.00010050251 	-0.035297635 	-0.021276566 	1.0290436
0.00012060302 	-0.036202115 	-0.017319108 	1.0220672
0.00014070352 	-0.036202115 	-0.017319108 	1.0220672
0.00016080402 	-0.036202115 	-0.017319108 	1.0220672
0.00018090452 	-0.037455923 	-0.009873475 	1.0113901
0.00020100503 	-0.037455923 	-0.009873475 	1.0113901
0.00022110553 	-0.037455923 	-0.009873475 	1.0113901
0.00024120603 	-0.038220832 	-0.011589701 	0.99683173
0.00026130653 	-0.038220832 	-0.011589701 	0.99683173
0.00028140704 	-0.040014977 	-0.0045111738 	0.98065063
0.00030150754 	-0.040014977 	-0.0045111738 	0.98065063
0.00032160804 	-0.040014977 	-0.0045111738 	0.98065063
0.00034170854 	-0.040888225 	-0.0023759909 	0.96452446
0.00036180905 	-0.040888225 	-0.0023759909 	0.96452446
0.00038190955 	-0.040888225 	-0.0023759909 	0.96452446
0.00040201005 	-0.038998774 	0.00015479842 	0.95333662
0.00042211055 	-0.038998774 	0.00015479842 	0.95333662
0.00044221106 	-0.038998774 	0.00015479842 	0.95333662
0.00046231156 	-0.040699657 	-0.0085576201 	0.94887463
0.00048241206 	-0.040699657 	-0.0085576201 	0.94887463
0.00050251256 	-0.044144617 	-0.017501861 	0.95076453
0.00052261307 	-0.044144617 	-0.017501861 	0.95076453
0.00054271357 	-0.044144617 	-0.017501861 	0.95076453
0.00056281407 	-0.049321786 	-0.023987622 	0.95740031
0.00058291457 	-0.049321786 	-0.023987622 	0.95740031
0.00060301508 	-0.049321786 	-0.023987622 	0.95740031
0.00062311558 	-0.055353463 	-0.028632482 	0.96633216
0.00064321608 	-0.055353463 	-0.028632482 	0.96633216
0.00066331658 	-0.055353463 	-0.028632482 	0.96633216
0.00068341709 	-0.052578451 	-0.039938592 	0.97456981
0.00070351759 	-0.052578451 	-0.039938592 	0.97456981
0.00072361809 	-0.056570829 	-0.041239193 	0.9806074
0.00074371859 	-0.056570829 	-0.041239193 	0.9806074
0.0007638191 	-0.067038896 	-0.034149882 	0.97914784
0.0007839196 	-0.070987481 	-0.03247595 	0.98367665
0.0008040201 	-0.070987481 	-0.03247595 	0.98367665
0.0008241206 	-0.070987481 	-0.03247595 	0.98367665
0.00084422111 	-0.061253279 	-0.033524876 	0.98954054
0.00086432161 	-0.061253279 	-0.033524876 	0.98954054
0.00088442211 	-0.061253279 	-0.033524876 	0.98954054
0.00090452261 	-0.072164894 	-0.024662985 	0.99076433
0.00092462312 	-0.072164894 	-0.024662985 	0.99076433
0.00094472362 	-0.069891016 	-0.020925816 	0.9903004
0.00096482412 	-0.058236398 	-0.021381719 	0.99057207
0.00098492462 	-0.058236398 	-0.021381719 	0.99057207
0.0010050251 	-0.053785576 	-0.013879442 	0.98752768
0.0010251256 	-0.053785576 	-0.013879442 	0.98752768
0.0010452261 	-0.053785576 	-0.013879442 	0.98752768
0.0010653266 	-0.048102959 	-0.0043010242 	0.98473783
0.0010854271 	-0.048102959 	-0.0043010242 	0.98473783
0.0011055276 	-0.048102959 	-0.0043010242 	0.98473783
0.0011256281 	-0.043317602 	0.0063681911 	0.98494469
0.0011457286 	-0.043317602 	0.0063681911 	0.98494469
0.0011658291 	-0.043317602 	0.0063681911 	0.98494469
0.0011859296 	-0.040852092 	0.017223694 	0.98895793
0.0012060302 	-0.040852092 	0.017223694 	0.98895793
0.0012261307 	-0.040852092 	0.017223694 	0.98895793
0.0012462312 	-0.041989247 	0.027613468 	0.99503727
0.0012663317 	-0.062966951 	0.025410269 	0.99438586
0.0012864322 	-0.041989247 	0.027613468 	0.99503727
0.0013065327 	-0.047085215 	0.037375507 	0.99974812
0.0013266332 	-0.047085215 	0.037375507 	0.99974812
0.0013467337 	-0.047085215 	0.037375507 	0.99974812
0.0013668342 	-0.055339473 	0.045882113 	1.0010058
0.0013869347 	-0.055339473 	0.045882113 	1.0010058
0.0014070352 	-0.055339473 	0.045882113 	1.0010058
0.0014271357 	-0.06461441 	0.05215164 	0.99969326
0.0014472362 	-0.06461441 	0.05215164 	0.99969326
0.0014673367 	-0.06461441 	0.05215164 	0.99969326
0.0014874372 	-0.07201438 	0.055382723 	0.99761449
0.0015075377 	-0.07201438 	0.055382723 	0.99761449
0.0015276382 	-0.075084327 	0.054818168 	0.99530792
0.0015477387 	-0.075084327 	0.054818168 	0.99530792
0.0015678392 	-0.075084327 	0.054818168 	0.99530792
0.0015879397 	-0.073070394 	0.050026058 	0.99259596
0.0016080402 	-0.073070394 	0.050026058 	0.99259596
0.0016281407 	-0.073070394 	0.050026058 	0.99259596
0.0016482412 	-0.06703075 	0.041626937 	0.98990438
0.0016683417 	-0.06703075 	0.041626937 	0.98990438
0.0016884422 	-0.05892203 	0.031247556 	0.98813928
0.0017085427 	-0.05892203 	0.031247556 	0.98813928
0.0017286432 	-0.05892203 	0.031247556 	0.98813928
0.0017487437 	-0.050618878 	0.020712045 	0.98799015
0.0017688442 	-0.050618878 	0.020712045 	0.98799015
0.0017889447 	-0.050618878 	0.020712045 	0.98799015
0.0018090452 	-0.043415914 	0.011487532 	0.98971387
0.0018291457 	-0.043415914 	0.011487532 	0.98971387
0.0018492462 	-0.037806673 	0.0043396704 	0.99313751
0.0018693467 	-0.037806673 	0.0043396704 	0.99313751
0.0018894472 	-0.037806673 	0.0043396704 	0.99313751
0.0019095477 	-0.033503638 	-0.00078752493 	0.99757876
0.0019296482 	-0.033503638 	-0.00078752493 	0.99757876
0.0019497487 	-0.02991504 	-0.0045275331 	1.0019781
0.0019698492 	-0.02991504 	-0.0045275331 	1.0019781
0.0019899497 	-0.026542778 	-0.0078757968 	1.0049053
0.0020100503 	-0.026542778 	-0.0078757968 	1.0049053
0.0020301508 	-0.026542778 	-0.0078757968 	1.0049053
0.0020502513 	-0.023133996 	-0.011876122 	1.0048715
0.0020703518 	-0.023133996 	-0.011876122 	1.0048715
0.0020904523 	-0.019708879 	-0.017470946 	1.000677
0.0021105528 	-0.019708879 	-0.017470946 	1.000677
0.0021306533 	-0.019708879 	-0.017470946 	1.000677
0.0021507538 	-0.016496318 	-0.02532086 	0.99172521
0.0021708543 	-0.016496318 	-0.02532086 	0.99172521
0.0021909548 	-0.013906007 	-0.035575939 	0.97823102
0.0022110553 	-0.013906007 	-0.035575939 	0.97823102
0.0022311558 	-0.012476698 	-0.047487471 	0.96158071
0.0022512563 	-0.012476698 	-0.047487471 	0.96158071
0.0022713568 	-0.012819562 	-0.059085247 	0.94426413
0.0022914573 	-0.012819562 	-0.059085247 	0.94426413
0.0023115578 	-0.012819562 	-0.059085247 	0.94426413
0.0023316583 	-0.015296792 	-0.067661364 	0.92901087
0.0023517588 	-0.015296792 	-0.067661364 	0.92901087
0.0023718593 	-0.019414022 	-0.071325274 	0.91710567
0.0023919598 	-0.019414022 	-0.071325274 	0.91710567
0.0024120603 	-0.023709956 	-0.070572356 	0.90737014
0.0024321608 	-0.023709956 	-0.070572356 	0.90737014
0.0024522613 	-0.026416068 	-0.068339878 	0.8968783
0.0024723618 	-0.026416068 	-0.068339878 	0.8968783
0.0024924623 	-0.026431425 	-0.068268036 	0.88280663
0.0025125628 	-0.026431425 	-0.068268036 	0.88280663
0.0025326633 	-0.023893294 	-0.072429026 	0.86408303
0.0025527638 	-0.023893294 	-0.072429026 	0.86408303
0.0025728643 	-0.020080753 	-0.080281012 	0.84186327
0.0025929648 	-0.020080753 	-0.080281012 	0.84186327
0.0026130653 	-0.016832866 	-0.089441785 	0.81877505
0.0026331658 	-0.016832866 	-0.089441785 	0.81877505
0.0026532663 	-0.01558011 	-0.097529536 	0.79756886
0.0026733668 	-0.01558011 	-0.097529536 	0.79756886
0.0026934673 	-0.016446595 	-0.10400138 	0.77909402
0.0027135678 	-0.016446595 	-0.10400138 	0.77909402
0.0027336683 	-0.018199797 	-0.11073659 	0.76085789
0.0027537688 	-0.018199797 	-0.11073659 	0.76085789
0.0027738693 	-0.019217854 	-0.12038406 	0.73805039
0.0027939698 	-0.019217854 	-0.12038406 	0.73805039
0.0028140704 	-0.018672032 	-0.1338047 	0.70706162
0.0028341709 	-0.018672032 	-0.1338047 	0.70706162
0.0028542714 	-0.017205326 	-0.14917918 	0.66902754
0.0028743719 	-0.016731063 	-0.16317211 	0.63063325
0.0028944724 	-0.016731063 	-0.16317211 	0.63063325
0.0029145729 	-0.01955505 	-0.17223279 	0.60159984
0.0029346734 	-0.01955505 	-0.17223279 	0.60159984
0.0029547739 	-0.026865539 	-0.1729723 	0.59016266
0.0029748744 	-0.026865539 	-0.1729723 	0.59016266
0.0029949749 	-0.037766636 	-0.16316437 	0.59742458
0.0030150754 	-0.05010395 	-0.14352513 	0.61672905
0.0030351759 	-0.05010395 	-0.14352513 	0.61672905
0.0030552764 	-0.061942856 	-0.11789948 	0.63934099
0.0030753769 	-0.061942856 	-0.11789948 	0.63934099
0.0030954774 	-0.072278459 	-0.091103555 	0.65973565
0.0031155779 	-0.080844986 	-0.066160458 	0.6764927
0.0031356784 	-0.080844986 	-0.066160458 	0.6764927
0.0031557789 	-0.087529356 	-0.043832281 	0.69012744
0.0031758794 	-0.087529356 	-0.043832281 	0.69012744
0.0031959799 	-0.092182905 	-0.024116804 	0.701343
0.0032160804 	-0.09479991 	-0.0072950647 	0.71089034
0.0032361809 	-0.09479991 	-0.0072950647 	0.71089034
0.0032562814 	-0.095747794 	0.0061129806 	0.71952269
0.0032763819 	-0.095497521 	0.015765118 	0.72715181
0.0032964824 	-0.095497521 	0.015765118 	0.72715181
0.0033165829 	-0.094175871 	0.021811115 	0.73239285
0.0033366834 	-0.092038691 	0.025152294 	0.73373393
0.0033567839 	-0.092038691 	0.025152294 	0.73373393
0.0033768844 	-0.089444487 	0.026974199 	0.73032234
0.0033969849 	-0.086664336 	0.028526672 	0.72222751
0.0034170854 	-0.086664336 	0.028526672 	0.72222751
0.0034371859 	-0.083985588 	0.030921782 	0.71028711
0.0034572864 	-0.081631907 	0.034944584 	0.69573959
0.0034773869 	-0.079688641 	0.040929452 	0.67982366
0.0034974874 	-0.079688641 	0.040929452 	0.67982366
0.0035175879 	-0.078094378 	0.048736726 	0.66344792
0.0035376884 	-0.07666426 	0.057827284 	0.64701201
0.0035577889 	-0.075140533 	0.067401257 	0.63039826
0.0035778894 	-0.075140533 	0.067401257 	0.63039826
0.0035979899 	-0.073250166 	0.07656129 	0.61309744
0.0036180905 	-0.070755741 	0.08445945 	0.59440249
0.003638191 	-0.067492672 	0.090401368 	0.57360304
0.0036582915 	-0.067492672 	0.090401368 	0.57360304
0.003678392 	-0.063388131 	0.093901928 	0.55013548
0.0036984925 	-0.058464841 	0.094702867 	0.52367273
0.003718593 	-0.05283297 	0.092766933 	0.49415709
0.0037386935 	-0.046674158 	0.088259958 	0.46178699
0.003758794 	-0.040219565 	0.081524663 	0.4269668
0.0037788945 	-0.040219565 	0.081524663 	0.4269668
0.003798995 	-0.033722942 	0.073044031 	0.3902256
0.0038190955 	-0.027431076 	0.063390768 	0.35211389
0.003839196 	-0.021556041 	0.05316437 	0.31309868
0.0038592965 	-0.016256546 	0.042926694 	0.27348831
0.003879397 	-0.011633934 	0.033153125 	0.23341293
0.0038994975 	-0.0077432249 	0.024213588 	0.19285593
0.003919598 	-0.0046130498 	0.01638456 	0.1516983
0.0039396985 	-0.0022669579 	0.0098749004 	0.10974107
0.003959799 	-0.00073126552 	0.0048252609 	0.066735096
0.0039798995 	-4.511692e-05 	0.0012313249 	0.022554293
0.004 	-4.511692e-05 	0.0012313249 	0.022554293
