0 	0.01882491 	0.031333334 	1.0889891
2.0100503e-05 	0.01882491 	0.031333334 	1.0889891
4.0201005e-05 	0.01882491 	0.031333334 	1.0889891
6.0301508e-05 	-0.0010146342 	0.037381273 	1.0792064
8.040201e-05 	-0.0010146342 	0.037381273 	1.0792064
0.00010050251 	-0.0010146342 	0.037381273 	1.0792064
0.00012060302 	-0.0090764008 	0.034176432 	1.0706473
0.00014070352 	-0.0090764008 	0.034176432 	1.0706473
0.00016080402 	-0.0090764008 	0.034176432 	1.0706473
0.00018090452 	-0.013580889 	0.027839389 	1.0637286
0.00020100503 	-0.013580889 	0.027839389 	1.0637286
0.00022110553 	-0.014736708 	0.022304243 	1.0703664
0.00024120603 	-0.014646637 	0.015578017 	1.0644112
0.00026130653 	-0.014646637 	0.015578017 	1.0644112
0.00028140704 	-0.014459486 	0.0068889783 	1.0601758
0.00030150754 	-0.014459486 	0.0068889783 	1.0601758
0.00032160804 	-0.014459486 	0.0068889783 	1.0601758
0.00034170854 	-0.014285739 	-0.0033958039 	1.0573537
0.00036180905 	-0.014285739 	-0.0033958039 	1.0573537
0.00038190955 	-0.020110438 	-0.001899946 	1.0538839
0.00040201005 	-0.021357022 	-0.014236744 	1.0527341
0.00042211055 	-0.021357022 	-0.014236744 	1.0527341
0.00044221106 	-0.021357022 	-0.014236744 	1.0527341
0.00046231156 	-0.022096008 	-0.026856993 	1.0513702
0.00048241206 	-0.022096008 	-0.026856993 	1.0513702
0.00050251256 	-0.022328879 	-0.03868074 	1.0492982
0.00052261307 	-0.022328879 	-0.03868074 	1.0492982
0.00054271357 	-0.022328879 	-0.03868074 	1.0492982
0.00056281407 	-0.022254099 	-0.04856519 	1.046447
0.00058291457 	-0.022254099 	-0.04856519 	1.046447
0.00060301508 	-0.022254099 	-0.04856519 	1.046447
0.00062311558 	-0.022215513 	-0.055773509 	1.0430508
0.00064321608 	-0.022215513 	-0.055773509 	1.0430508
0.00066331658 	-0.012705492 	-0.054905014 	1.0438107
0.00068341709 	-0.013100135 	-0.060195821 	1.0402229
0.00070351759 	-0.013100135 	-0.060195821 	1.0402229
0.00072361809 	-0.01410177 	-0.063832285 	1.0362802
0.00074371859 	-0.01410177 	-0.063832285 	1.0362802
0.0007638191 	-0.01410177 	-0.063832285 	1.0362802
0.0007839196 	-0.024409392 	-0.064259335 	1.0287436
0.0008040201 	-0.024409392 	-0.064259335 	1.0287436
0.0008241206 	-0.024409392 	-0.064259335 	1.0287436
0.00084422111 	-0.024937908 	-0.065315555 	1.0199803
0.00086432161 	-0.024937908 	-0.065315555 	1.0199803
0.00088442211 	-0.024937908 	-0.065315555 	1.0199803
0.00090452261 	-0.016308661 	-0.071022021 	1.0129635
0.00092462312 	-0.016308661 	-0.071022021 	1.0129635
0.00094472362 	-0.014849255 	-0.07287287 	0.99997145
0.00096482412 	-0.014849255 	-0.07287287 	0.99997145
0.00098492462 	-0.014849255 	-0.07287287 	0.99997145
0.0010050251 	-0.011785941 	-0.074268565 	0.98530574
0.0010251256 	-0.011785941 	-0.074268565 	0.98530574
0.0010452261 	-0.011785941 	-0.074268565 	0.98530574
0.0010653266 	-0.0076315249 	-0.07452871 	0.97122454
0.0010854271 	-0.0076315249 	-0.07452871 	0.97122454
0.0011055276 	-0.0076315249 	-0.07452871 	0.97122454
0.0011256281 	-0.0036983202 	-0.073462715 	0.96052417
0.0011457286 	-0.0036983202 	-0.073462715 	0.96052417
0.0011658291 	-0.0036983202 	-0.073462715 	0.96052417
0.0011859296 	-0.00084833554 	-0.071353698 	0.9533001
0.0012060302 	-0.00084833554 	-0.071353698 	0.9533001
0.0012261307 	-0.00084833554 	-0.071353698 	0.9533001
0.0012462312 	0.00058129521 	-0.068677912 	0.94914344
0.0012663317 	0.00058129521 	-0.068677912 	0.94914344
0.0012864322 	0.00058129521 	-0.068677912 	0.94914344
0.0013065327 	0.00048949952 	-0.065983274 	0.94769769
0.0013266332 	0.00048949952 	-0.065983274 	0.94769769
0.0013467337 	-0.0058174128 	-0.057591423 	0.9498692
0.0013668342 	-0.00095875601 	-0.06370517 	0.94852705
0.0013869347 	-0.00095875601 	-0.06370517 	0.94852705
0.0014070352 	-0.00095875601 	-0.06370517 	0.94852705
0.0014271357 	-0.0033949035 	-0.061974949 	0.95093967
0.0014472362 	-0.0033949035 	-0.061974949 	0.95093967
0.0014673367 	-0.0033949035 	-0.061974949 	0.95093967
0.0014874372 	-0.0062532586 	-0.060552453 	0.95421675
0.0015075377 	-0.0062532586 	-0.060552453 	0.95421675
0.0015276382 	-0.0089018948 	-0.059057012 	0.95801674
0.0015477387 	-0.0089018948 	-0.059057012 	0.95801674
0.0015678392 	-0.0089018948 	-0.059057012 	0.95801674
0.0015879397 	-0.010812413 	-0.057273012 	0.9623413
0.0016080402 	-0.010812413 	-0.057273012 	0.9623413
0.0016281407 	-0.010812413 	-0.057273012 	0.9623413
0.0016482412 	-0.011617955 	-0.055258139 	0.96711051
0.0016683417 	-0.011617955 	-0.055258139 	0.96711051
0.0016884422 	-0.011161297 	-0.05311231 	0.97201249
0.0017085427 	-0.011161297 	-0.05311231 	0.97201249
0.0017286432 	-0.011161297 	-0.05311231 	0.97201249
0.0017487437 	-0.0094646512 	-0.050866449 	0.97666555
0.0017688442 	-0.0094646512 	-0.050866449 	0.97666555
0.0017889447 	-0.0094646512 	-0.050866449 	0.97666555
0.0018090452 	-0.0066382381 	-0.048478325 	0.9808155
0.0018291457 	-0.0066382381 	-0.048478325 	0.9808155
0.0018492462 	-0.0028648099 	-0.04583461 	0.98438957
0.0018693467 	-0.0028648099 	-0.04583461 	0.98438957
0.0018894472 	-0.0028648099 	-0.04583461 	0.98438957
0.0019095477 	0.0016858402 	-0.042876928 	0.98729967
0.0019296482 	0.0016858402 	-0.042876928 	0.98729967
0.0019497487 	0.006864631 	-0.039652815 	0.98937992
0.0019698492 	0.006864631 	-0.039652815 	0.98937992
0.0019899497 	0.012561295 	-0.036409791 	0.99042545
0.0020100503 	0.012561295 	-0.036409791 	0.99042545
0.0020301508 	0.012561295 	-0.036409791 	0.99042545
0.0020502513 	0.018644944 	-0.033508615 	0.99032329
0.0020703518 	0.018644944 	-0.033508615 	0.99032329
0.0020904523 	0.024830207 	-0.031198882 	0.98912165
0.0021105528 	0.024830207 	-0.031198882 	0.98912165
0.0021306533 	0.024830207 	-0.031198882 	0.98912165
0.0021507538 	0.030756078 	-0.029413952 	0.98695602
0.0021708543 	0.030756078 	-0.029413952 	0.98695602
0.0021909548 	0.036016616 	-0.027711134 	0.98379612
0.0022110553 	0.036016616 	-0.027711134 	0.98379612
0.0022311558 	0.040126861 	-0.02551783 	0.97912199
0.0022512563 	0.040126861 	-0.02551783 	0.97912199
0.0022713568 	0.042427263 	-0.022662938 	0.97184033
0.0022914573 	0.042427263 	-0.022662938 	0.97184033
0.0023115578 	0.042427263 	-0.022662938 	0.97184033
0.0023316583 	0.04210584 	-0.019601828 	0.9609727
0.0023517588 	0.04210584 	-0.019601828 	0.9609727
0.0023718593 	0.038683532 	-0.016820009 	0.94693482
0.0023919598 	0.038683532 	-0.016820009 	0.94693482
0.0024120603 	0.032587463 	-0.013906616 	0.93197451
0.0024321608 	0.032587463 	-0.013906616 	0.93197451
0.0024522613 	0.025188833 	-0.0091391468 	0.91912866
0.0024723618 	0.025188833 	-0.0091391468 	0.91912866
0.0024924623 	0.018174395 	-0.00017887058 	0.90985574
0.0025125628 	0.018174395 	-0.00017887058 	0.90985574
0.0025326633 	0.012353805 	0.013699464 	0.90211805
0.0025527638 	0.012353805 	0.013699464 	0.90211805
0.0025728643 	0.0070589872 	0.029843296 	0.89187233
0.0025929648 	0.0070589872 	0.029843296 	0.89187233
0.0026130653 	0.00099164701 	0.042959242 	0.87702677
0.0026331658 	0.00099164701 	0.042959242 	0.87702677
0.0026532663 	-0.0067430235 	0.047678141 	0.85960293
0.0026733668 	-0.0067430235 	0.047678141 	0.85960293
0.0026934673 	-0.015872205 	0.042103764 	0.84287757
0.0027135678 	-0.015872205 	0.042103764 	0.84287757
0.0027336683 	-0.024956617 	0.030172695 	0.82671896
0.0027537688 	-0.024956617 	0.030172695 	0.82671896
0.0027738693 	-0.03219499 	0.018968193 	0.80848134
0.0027939698 	-0.03219499 	0.018968193 	0.80848134
0.0028140704 	-0.036726036 	0.012617504 	0.78952763
0.0028341709 	-0.036726036 	0.012617504 	0.78952763
0.0028542714 	-0.038820476 	0.010443694 	0.77583166
0.0028743719 	-0.038661306 	0.010182266 	0.77042104
0.0028944724 	-0.038661306 	0.010182266 	0.77042104
0.0029145729 	-0.035977002 	0.010748449 	0.76949544
0.0029346734 	-0.035977002 	0.010748449 	0.76949544
0.0029547739 	-0.030527919 	0.012422988 	0.76588587
0.0029748744 	-0.030527919 	0.012422988 	0.76588587
0.0029949749 	-0.022778536 	0.015632418 	0.75449021
0.0030150754 	-0.014289318 	0.019724351 	0.7363316
0.0030351759 	-0.014289318 	0.019724351 	0.7363316
0.0030552764 	-0.0075798532 	0.022572421 	0.71926614
0.0030753769 	-0.0075798532 	0.022572421 	0.71926614
0.0030954774 	-0.0050416126 	0.021166733 	0.71391115
0.0031155779 	-0.0074066517 	0.013059506 	0.72618235
0.0031356784 	-0.0074066517 	0.013059506 	0.72618235
0.0031557789 	-0.013358501 	-0.0019579342 	0.75201592
0.0031758794 	-0.013358501 	-0.0019579342 	0.75201592
0.0031959799 	-0.0201263 	-0.021242973 	0.77950477
0.0032160804 	-0.024442437 	-0.040790216 	0.7958049
0.0032361809 	-0.024442437 	-0.040790216 	0.7958049
0.0032562814 	-0.024108953 	-0.057014144 	0.79248649
0.0032763819 	-0.018828023 	-0.06775248 	0.76733661
0.0032964824 	-0.018828023 	-0.06775248 	0.76733661
0.0033165829 	-0.01005335 	-0.072349152 	0.72388206
0.0033366834 	-0.00030683527 	-0.071367457 	0.66978554
0.0033567839 	-0.00030683527 	-0.071367457 	0.66978554
0.0033768844 	0.0078857098 	-0.066219534 	0.61446635
0.0033969849 	0.012719643 	-0.058715873 	0.56601652
0.0034170854 	0.012719643 	-0.058715873 	0.56601652
0.0034371859 	0.013595509 	-0.050572694 	0.52891713
0.0034572864 	0.011098699 	-0.043046926 	0.50356979
0.0034773869 	0.0064326242 	-0.036782206 	0.48769471
0.0034974874 	0.0064326242 	-0.036782206 	0.48769471
0.0035175879 	0.0009265215 	-0.031848692 	0.47823446
0.0035376884 	-0.0043019029 	-0.027945582 	0.47261794
0.0035577889 	-0.0085320174 	-0.024627543 	0.4691122
0.0035778894 	-0.0085320174 	-0.024627543 	0.4691122
0.0035979899 	-0.011394879 	-0.021495206 	0.46662814
0.0036180905 	-0.012758198 	-0.018314266 	0.46439447
0.003638191 	-0.012670275 	-0.015052257 	0.46175034
0.0036582915 	-0.012670275 	-0.015052257 	0.46175034
0.003678392 	-0.01133448 	-0.011839413 	0.45808802
0.0036984925 	-0.0090787528 	-0.0088881178 	0.45286523
0.003718593 	-0.006311504 	-0.0063854225 	0.44574628
0.0037386935 	-0.003421489 	-0.0044567685 	0.43647174
0.003758794 	-0.00073401014 	-0.0031393875 	0.42478978
0.0037788945 	-0.00073401014 	-0.0031393875 	0.42478978
0.003798995 	0.001496296 	-0.0023771922 	0.41036406
0.0038190955 	0.0031087548 	-0.002027287 	0.39266305
0.003839196 	0.0040184703 	-0.0018839845 	0.37086368
0.0038592965 	0.0042307589 	-0.0017327797 	0.3438477
0.003879397 	0.0038491081 	-0.0014297967 	0.31035283
0.0038994975 	0.0030539602 	-0.00097201483 	0.26929907
0.003919598 	0.0020685164 	-0.00050070662 	0.22020011
0.0039396985 	0.0011210737 	-0.00020391627 	0.16352035
0.003959799 	0.00040128251 	-0.00014299204 	0.10072503
0.0039798995 	3.5377359e-05 	-0.00012992348 	0.03406976
0.004 	3.5377359e-05 	-0.00012992348 	0.03406976
