0 	0.050013636 	0.017666699 	1.0397678
2.0100503e-05 	0.017860105 	-0.051202475 	1.0406323
4.0201005e-05 	0.017860105 	-0.051202475 	1.0406323
6.0301508e-05 	-0.0073324611 	-0.054639442 	1.0411991
8.040201e-05 	-0.0073324611 	-0.054639442 	1.0411991
0.00010050251 	-0.0073324611 	-0.054639442 	1.0411991
0.00012060302 	-0.01448885 	-0.053800742 	1.0414908
0.00014070352 	-0.01448885 	-0.053800742 	1.0414908
0.00016080402 	-0.01448885 	-0.053800742 	1.0414908
0.00018090452 	-0.017705368 	-0.053083793 	1.0415032
0.00020100503 	-0.017705368 	-0.053083793 	1.0415032
0.00022110553 	-0.017705368 	-0.053083793 	1.0415032
0.00024120603 	-0.019283178 	-0.052369024 	1.0412169
0.00026130653 	-0.019283178 	-0.052369024 	1.0412169
0.00028140704 	-0.019826677 	-0.051526216 	1.0406066
0.00030150754 	-0.019826677 	-0.051526216 	1.0406066
0.00032160804 	-0.019826677 	-0.051526216 	1.0406066
0.00034170854 	-0.019558688 	-0.050453619 	1.0396413
0.00036180905 	-0.019558688 	-0.050453619 	1.0396413
0.00038190955 	-0.019558688 	-0.050453619 	1.0396413
0.00040201005 	-0.018606712 	-0.04905389 	1.0382871
0.00042211055 	-0.018606712 	-0.04905389 	1.0382871
0.00044221106 	-0.018606712 	-0.04905389 	1.0382871
0.00046231156 	-0.017089971 	-0.047228158 	1.0365318
0.00048241206 	-0.017089971 	-0.047228158 	1.0365318
0.00050251256 	-0.015144725 	-0.044879074 	1.0344405
0.00052261307 	-0.015144725 	-0.044879074 	1.0344405
0.00054271357 	-0.015144725 	-0.044879074 	1.0344405
0.00056281407 	-0.012930666 	-0.041948956 	1.0322314
0.00058291457 	-0.012930666 	-0.041948956 	1.0322314
0.00060301508 	-0.012930666 	-0.041948956 	1.0322314
0.00062311558 	-0.015341601 	-0.037766754 	1.0227352
0.00064321608 	-0.015341601 	-0.037766754 	1.0227352
0.00066331658 	-0.015341601 	-0.037766754 	1.0227352
0.00068341709 	-0.015239982 	-0.033883898 	1.0209263
0.00070351759 	-0.015239982 	-0.033883898 	1.0209263
0.00072361809 	-0.015405299 	-0.030054299 	1.0208539
0.00074371859 	-0.015405299 	-0.030054299 	1.0208539
0.0007638191 	-0.015405299 	-0.030054299 	1.0208539
0.0007839196 	-0.015851308 	-0.026906033 	1.0230796
0.0008040201 	-0.015851308 	-0.026906033 	1.0230796
0.0008241206 	-0.015851308 	-0.026906033 	1.0230796
0.00084422111 	-0.016646025 	-0.024817858 	1.0275498
0.00086432161 	-0.016646025 	-0.024817858 	1.0275498
0.00088442211 	-0.016646025 	-0.024817858 	1.0275498
0.00090452261 	-0.0028415953 	-0.022948618 	1.0441869
0.00092462312 	-0.0028415953 	-0.022948618 	1.0441869
0.00094472362 	-0.019179668 	-0.02265789 	1.0400935
0.00096482412 	-0.019179668 	-0.02265789 	1.0400935
0.00098492462 	-0.019179668 	-0.02265789 	1.0400935
0.0010050251 	-0.020987742 	-0.020819197 	1.0470674
0.0010251256 	-0.020987742 	-0.020819197 	1.0470674
0.0010452261 	-0.020987742 	-0.020819197 	1.0470674
0.0010653266 	-0.0045044594 	-0.01410458 	1.0673241
0.0010854271 	-0.0045044594 	-0.01410458 	1.0673241
0.0011055276 	-0.0045044594 	-0.01410458 	1.0673241
0.0011256281 	-0.005271826 	-0.0096520082 	1.0752884
0.0011457286 	-0.005271826 	-0.0096520082 	1.0752884
0.0011658291 	-0.005271826 	-0.0096520082 	1.0752884
0.0011859296 	-0.0061506404 	-0.0053675544 	1.082863
0.0012060302 	-0.0061506404 	-0.0053675544 	1.082863
0.0012261307 	-0.0061506404 	-0.0053675544 	1.082863
0.0012462312 	-0.0074208843 	-0.0013862609 	1.0884589
0.0012663317 	-0.0074208843 	-0.0013862609 	1.0884589
0.0012864322 	-0.0074208843 	-0.0013862609 	1.0884589
0.0013065327 	-0.0095649569 	0.0026546737 	1.0873883
0.0013266332 	-0.0095649569 	0.0026546737 	1.0873883
0.0013467337 	-0.0095649569 	0.0026546737 	1.0873883
0.0013668342 	-0.012962002 	0.0067478558 	1.0713009
0.0013869347 	-0.012962002 	0.0067478558 	1.0713009
0.0014070352 	-0.012962002 	0.0067478558 	1.0713009
0.0014271357 	-0.018282843 	0.0087291746 	1.0347663
0.0014472362 	-0.018282843 	0.0087291746 	1.0347663
0.0014673367 	-0.018282843 	0.0087291746 	1.0347663
0.0014874372 	-0.026084483 	0.0050579791 	0.98602471
0.0015075377 	-0.026084483 	0.0050579791 	0.98602471
0.0015276382 	-0.035590345 	-0.0046057947 	0.94171053
0.0015477387 	-0.035590345 	-0.0046057947 	0.94171053
0.0015678392 	-0.035590345 	-0.0046057947 	0.94171053
0.0015879397 	-0.045055146 	-0.016713718 	0.90940301
0.0016080402 	-0.045055146 	-0.016713718 	0.90940301
0.0016281407 	-0.045055146 	-0.016713718 	0.90940301
0.0016482412 	-0.053431593 	-0.027291154 	0.88575786
0.0016683417 	-0.053431593 	-0.027291154 	0.88575786
0.0016884422 	-0.060464276 	-0.034287239 	0.86659758
0.0017085427 	-0.060464276 	-0.034287239 	0.86659758
0.0017286432 	-0.060464276 	-0.034287239 	0.86659758
0.0017487437 	-0.065641328 	-0.037931837 	0.85147827
0.0017688442 	-0.065641328 	-0.037931837 	0.85147827
0.0017889447 	-0.065641328 	-0.037931837 	0.85147827
0.0018090452 	-0.067792259 	-0.04018732 	0.84089553
0.0018291457 	-0.067792259 	-0.04018732 	0.84089553
0.0018492462 	-0.06592713 	-0.043390073 	0.83392798
0.0018693467 	-0.06592713 	-0.043390073 	0.83392798
0.0018894472 	-0.06592713 	-0.043390073 	0.83392798
0.0019095477 	-0.060151542 	-0.048749555 	0.82891287
0.0019296482 	-0.060151542 	-0.048749555 	0.82891287
0.0019497487 	-0.051724117 	-0.056140507 	0.82442028
0.0019698492 	-0.051724117 	-0.056140507 	0.82442028
0.0019899497 	-0.042308964 	-0.064736324 	0.81961598
0.0020100503 	-0.042308964 	-0.064736324 	0.81961598
0.0020301508 	-0.042308964 	-0.064736324 	0.81961598
0.0020502513 	-0.033371314 	-0.073645802 	0.81429177
0.0020703518 	-0.033371314 	-0.073645802 	0.81429177
0.0020904523 	-0.025693325 	-0.082027325 	0.8087238
0.0021105528 	-0.025693325 	-0.082027325 	0.8087238
0.0021306533 	-0.025693325 	-0.082027325 	0.8087238
0.0021507538 	-0.019195896 	-0.08905179 	0.80335163
0.0021708543 	-0.019195896 	-0.08905179 	0.80335163
0.0021909548 	-0.013472545 	-0.093889498 	0.79840336
0.0022110553 	-0.013472545 	-0.093889498 	0.79840336
0.0022311558 	-0.0080310149 	-0.095579485 	0.79378244
0.0022512563 	-0.0080310149 	-0.095579485 	0.79378244
0.0022713568 	-0.0029772337 	-0.093242098 	0.78935765
0.0022914573 	-0.0029772337 	-0.093242098 	0.78935765
0.0023115578 	-0.0029772337 	-0.093242098 	0.78935765
0.0023316583 	0.00089852399 	-0.086386759 	0.78527668
0.0023517588 	0.00089852399 	-0.086386759 	0.78527668
0.0023718593 	0.0027252339 	-0.075271374 	0.78178963
0.0023919598 	0.0027252339 	-0.075271374 	0.78178963
0.0024120603 	0.0018519845 	-0.061189521 	0.7786623
0.0024321608 	0.0018519845 	-0.061189521 	0.7786623
0.0024522613 	-0.0018089438 	-0.046520245 	0.77480916
0.0024723618 	-0.0018089438 	-0.046520245 	0.77480916
0.0024924623 	-0.0076870207 	-0.034024046 	0.76849587
0.0025125628 	-0.0076870207 	-0.034024046 	0.76849587
0.0025326633 	-0.014651152 	-0.025374967 	0.75853199
0.0025527638 	-0.014651152 	-0.025374967 	0.75853199
0.0025728643 	-0.021417366 	-0.019655087 	0.74613092
0.0025929648 	-0.021417366 	-0.019655087 	0.74613092
0.0026130653 	-0.027038585 	-0.013832558 	0.73593554
0.0026331658 	-0.027038585 	-0.013832558 	0.73593554
0.0026532663 	-0.031308304 	-0.005503727 	0.733898
0.0026733668 	-0.031308304 	-0.005503727 	0.733898
0.0026934673 	-0.034644741 	0.0046121233 	0.74264806
0.0027135678 	-0.034644741 	0.0046121233 	0.74264806
0.0027336683 	-0.037373033 	0.012965402 	0.75941786
0.0027537688 	-0.037373033 	0.012965402 	0.75941786
0.0027738693 	-0.039591473 	0.01645603 	0.77911467
0.0027939698 	-0.039591473 	0.01645603 	0.77911467
0.0028140704 	-0.041408902 	0.015349772 	0.7982346
0.0028341709 	-0.041408902 	0.015349772 	0.7982346
0.0028542714 	-0.043010476 	0.012440721 	0.81563253
0.0028743719 	-0.044608333 	0.010350094 	0.83139894
0.0028944724 	-0.044608333 	0.010350094 	0.83139894
0.0029145729 	-0.046283737 	0.010210967 	0.84585562
0.0029346734 	-0.046283737 	0.010210967 	0.84585562
0.0029547739 	-0.048017287 	0.011956131 	0.85919395
0.0029748744 	-0.048017287 	0.011956131 	0.85919395
0.0029949749 	-0.049783842 	0.015000615 	0.87152634
0.0030150754 	-0.051564118 	0.018698125 	0.88295659
0.0030351759 	-0.051564118 	0.018698125 	0.88295659
0.0030552764 	-0.053318309 	0.022458729 	0.8934226
0.0030753769 	-0.053318309 	0.022458729 	0.8934226
0.0030954774 	-0.054924426 	0.02574312 	0.90241985
0.0031155779 	-0.056134284 	0.028038235 	0.90866345
0.0031356784 	-0.056134284 	0.028038235 	0.90866345
0.0031557789 	-0.056568352 	0.028894949 	0.90985842
0.0031758794 	-0.056568352 	0.028894949 	0.90985842
0.0031959799 	-0.055794401 	0.028038731 	0.90281494
0.0032160804 	-0.053504278 	0.025530861 	0.88412046
0.0032361809 	-0.053504278 	0.025530861 	0.88412046
0.0032562814 	-0.04974627 	0.021916925 	0.8513628
0.0032763819 	-0.045101057 	0.018246254 	0.80449067
0.0032964824 	-0.045101057 	0.018246254 	0.80449067
0.0033165829 	-0.040643953 	0.015772788 	0.74652224
0.0033366834 	-0.037593878 	0.015298143 	0.68296934
0.0033567839 	-0.037593878 	0.015298143 	0.68296934
0.0033768844 	-0.036805432 	0.016632287 	0.62026902
0.0033969849 	-0.038439028 	0.018875956 	0.56412101
0.0034170854 	-0.038439028 	0.018875956 	0.56412101
0.0034371859 	-0.041980537 	0.021262479 	0.51804232
0.0034572864 	-0.046513318 	0.023490512 	0.48248507
0.0034773869 	-0.05106011 	0.025412858 	0.45548757
0.0034974874 	-0.05106011 	0.025412858 	0.45548757
0.0035175879 	-0.054875409 	0.026812449 	0.43442902
0.0035376884 	-0.057566466 	0.027471205 	0.41726271
0.0035577889 	-0.059021844 	0.027300038 	0.40267964
0.0035778894 	-0.059021844 	0.027300038 	0.40267964
0.0035979899 	-0.05927997 	0.026355923 	0.3898204
0.0036180905 	-0.058434523 	0.024783638 	0.3780433
0.003638191 	-0.056587198 	0.022751989 	0.3668197
0.0036582915 	-0.056587198 	0.022751989 	0.3668197
0.003678392 	-0.053827664 	0.020416417 	0.35568938
0.0036984925 	-0.050237156 	0.017908098 	0.34423642
0.003718593 	-0.045960544 	0.015342184 	0.33206301
0.0037386935 	-0.041174232 	0.01282209 	0.31882395
0.003758794 	-0.036013477 	0.010405283 	0.30429642
0.0037788945 	-0.036013477 	0.010405283 	0.30429642
0.003798995 	-0.030637065 	0.0081710977 	0.28820705
0.0038190955 	-0.025221555 	0.0061978452 	0.27025976
0.003839196 	-0.019956317 	0.00455301 	0.2501184
0.0038592965 	-0.015032114 	0.0032760534 	0.2273932
0.003879397 	-0.010626879 	0.002356222 	0.20164689
0.0038994975 	-0.0068911206 	0.0017128093 	0.17244371
0.003919598 	-0.0039344086 	0.0011954387 	0.13946549
0.0039396985 	-0.0018143289 	0.00063466618 	0.10271027
0.003959799 	-0.00052373335 	-1.9147627e-05 	0.062752157
0.0039798995 	-1.5289624e-05 	-0.00043788911 	0.020948163
0.004 	-1.5289624e-05 	-0.00043788911 	0.020948163
