0 	-0.06204492 	0.042435726 	1.0438212
2.0100503e-05 	0.046370015 	0.059933238 	1.0654529
4.0201005e-05 	0.046370015 	0.059933238 	1.0654529
6.0301508e-05 	0.070091888 	0.030645369 	1.0838318
8.040201e-05 	0.070091888 	0.030645369 	1.0838318
0.00010050251 	0.070091888 	0.030645369 	1.0838318
0.00012060302 	0.074211321 	0.020130502 	1.0982986
0.00014070352 	0.074211321 	0.020130502 	1.0982986
0.00016080402 	0.074211321 	0.020130502 	1.0982986
0.00018090452 	0.075335349 	0.014843276 	1.1085583
0.00020100503 	0.075335349 	0.014843276 	1.1085583
0.00022110553 	0.075335349 	0.014843276 	1.1085583
0.00024120603 	0.075296472 	0.011634929 	1.114496
0.00026130653 	0.075296472 	0.011634929 	1.114496
0.00028140704 	0.074664079 	0.0093574455 	1.1162604
0.00030150754 	0.074664079 	0.0093574455 	1.1162604
0.00032160804 	0.074664079 	0.0093574455 	1.1162604
0.00034170854 	0.073762338 	0.0073123776 	1.1143693
0.00036180905 	0.073762338 	0.0073123776 	1.1143693
0.00038190955 	0.073762338 	0.0073123776 	1.1143693
0.00040201005 	0.07274367 	0.0050325791 	1.109699
0.00042211055 	0.07274367 	0.0050325791 	1.109699
0.00044221106 	0.07274367 	0.0050325791 	1.109699
0.00046231156 	0.071554831 	0.002384886 	1.1033223
0.00048241206 	0.071554831 	0.002384886 	1.1033223
0.00050251256 	0.069978651 	-0.00037587508 	1.0962406
0.00052261307 	0.069978651 	-0.00037587508 	1.0962406
0.00054271357 	0.069978651 	-0.00037587508 	1.0962406
0.00056281407 	0.067764827 	-0.0027269817 	1.0891759
0.00058291457 	0.067764827 	-0.0027269817 	1.0891759
0.00060301508 	0.067764827 	-0.0027269817 	1.0891759
0.00062311558 	0.064767089 	-0.004194016 	1.0825992
0.00064321608 	0.064767089 	-0.004194016 	1.0825992
0.00066331658 	0.064767089 	-0.004194016 	1.0825992
0.00068341709 	0.06101089 	-0.0047511585 	1.0769173
0.00070351759 	0.06101089 	-0.0047511585 	1.0769173
0.00072361809 	0.056674856 	-0.0049636859 	1.0725303
0.00074371859 	0.056674856 	-0.0049636859 	1.0725303
0.0007638191 	0.056674856 	-0.0049636859 	1.0725303
0.0007839196 	0.05199543 	-0.0055458511 	1.0696925
0.0008040201 	0.05199543 	-0.0055458511 	1.0696925
0.0008241206 	0.05199543 	-0.0055458511 	1.0696925
0.00084422111 	0.047205013 	-0.0066355071 	1.0683414
0.00086432161 	0.047205013 	-0.0066355071 	1.0683414
0.00088442211 	0.047205013 	-0.0066355071 	1.0683414
0.00090452261 	0.042515431 	-0.0076218154 	1.0680106
0.00092462312 	0.042515431 	-0.0076218154 	1.0680106
0.00094472362 	0.038292331 	-0.0077078105 	1.0678541
0.00096482412 	0.038292331 	-0.0077078105 	1.0678541
0.00098492462 	0.039363627 	-0.0076749953 	1.0694198
0.0010050251 	0.034641967 	-0.0065816934 	1.0666959
0.0010251256 	0.034641967 	-0.0065816934 	1.0666959
0.0010452261 	0.034641967 	-0.0065816934 	1.0666959
0.0010653266 	0.032178385 	-0.0047283532 	1.0636277
0.0010854271 	0.032178385 	-0.0047283532 	1.0636277
0.0011055276 	0.032178385 	-0.0047283532 	1.0636277
0.0011256281 	0.032403444 	-0.0044367323 	1.0613509
0.0011457286 	0.032403444 	-0.0044367323 	1.0613509
0.0011658291 	0.032403444 	-0.0044367323 	1.0613509
0.0011859296 	0.032584438 	-0.0062256313 	1.0570465
0.0012060302 	0.031224383 	-0.0045500831 	1.0547317
0.0012261307 	0.031224383 	-0.0045500831 	1.0547317
0.0012462312 	0.031734126 	-0.0073041156 	1.0510585
0.0012663317 	0.031734126 	-0.0073041156 	1.0510585
0.0012864322 	0.031734126 	-0.0073041156 	1.0510585
0.0013065327 	0.032109491 	-0.010976926 	1.0486733
0.0013266332 	0.032109491 	-0.010976926 	1.0486733
0.0013467337 	0.032109491 	-0.010976926 	1.0486733
0.0013668342 	0.031756623 	-0.013850273 	1.0476242
0.0013869347 	0.031756623 	-0.013850273 	1.0476242
0.0014070352 	0.031756623 	-0.013850273 	1.0476242
0.0014271357 	0.030167086 	-0.014102775 	1.0478157
0.0014472362 	0.030167086 	-0.014102775 	1.0478157
0.0014673367 	0.030167086 	-0.014102775 	1.0478157
0.0014874372 	0.027125446 	-0.010803104 	1.0488901
0.0015075377 	0.027125446 	-0.010803104 	1.0488901
0.0015276382 	0.022953101 	-0.0046213491 	1.0499773
0.0015477387 	0.022953101 	-0.0046213491 	1.0499773
0.0015678392 	0.022953101 	-0.0046213491 	1.0499773
0.0015879397 	0.018486548 	0.0023616221 	1.0499008
0.0016080402 	0.018486548 	0.0023616221 	1.0499008
0.0016281407 	0.018486548 	0.0023616221 	1.0499008
0.0016482412 	0.014816289 	0.0076599464 	1.0477178
0.0016683417 	0.014816289 	0.0076599464 	1.0477178
0.0016884422 	0.012964488 	0.0095003094 	1.0430129
0.0017085427 	0.012964488 	0.0095003094 	1.0430129
0.0017286432 	0.012964488 	0.0095003094 	1.0430129
0.0017487437 	0.013518088 	0.0075527515 	1.036009
0.0017688442 	0.013518088 	0.0075527515 	1.036009
0.0017889447 	0.013518088 	0.0075527515 	1.036009
0.0018090452 	0.016330096 	0.0028803841 	1.0277162
0.0018291457 	0.016330096 	0.0028803841 	1.0277162
0.0018492462 	0.020614889 	-0.0028125715 	1.0197214
0.0018693467 	0.020614889 	-0.0028125715 	1.0197214
0.0018894472 	0.020614889 	-0.0028125715 	1.0197214
0.0019095477 	0.025395142 	-0.0080396376 	1.0135031
0.0019296482 	0.025395142 	-0.0080396376 	1.0135031
0.0019497487 	0.02986569 	-0.011981129 	1.0098605
0.0019698492 	0.02986569 	-0.011981129 	1.0098605
0.0019899497 	0.033522224 	-0.014443498 	1.0087503
0.0020100503 	0.033522224 	-0.014443498 	1.0087503
0.0020301508 	0.033522224 	-0.014443498 	1.0087503
0.0020502513 	0.036128469 	-0.015623045 	1.0094736
0.0020703518 	0.036128469 	-0.015623045 	1.0094736
0.0020904523 	0.037642199 	-0.015872891 	1.0109969
0.0021105528 	0.037642199 	-0.015872891 	1.0109969
0.0021306533 	0.037642199 	-0.015872891 	1.0109969
0.0021507538 	0.038160159 	-0.015522151 	1.0122428
0.0021708543 	0.038160159 	-0.015522151 	1.0122428
0.0021909548 	0.037904053 	-0.014788803 	1.0123539
0.0022110553 	0.037904053 	-0.014788803 	1.0123539
0.0022311558 	0.037198338 	-0.013743407 	1.0108337
0.0022512563 	0.037198338 	-0.013743407 	1.0108337
0.0022713568 	0.036423596 	-0.012341152 	1.0075829
0.0022914573 	0.036423596 	-0.012341152 	1.0075829
0.0023115578 	0.036423596 	-0.012341152 	1.0075829
0.0023316583 	0.03595416 	-0.010512791 	1.002837
0.0023517588 	0.03595416 	-0.010512791 	1.002837
0.0023718593 	0.036076213 	-0.0082788776 	0.99702347
0.0023919598 	0.036076213 	-0.0082788776 	0.99702347
0.0024120603 	0.036931531 	-0.0057734029 	0.99060302
0.0024321608 	0.036931531 	-0.0057734029 	0.99060302
0.0024522613 	0.038524203 	-0.0032085662 	0.98398159
0.0024723618 	0.038524203 	-0.0032085662 	0.98398159
0.0024924623 	0.040737235 	-0.0007909575 	0.97746203
0.0025125628 	0.040737235 	-0.0007909575 	0.97746203
0.0025326633 	0.043376206 	0.0013260382 	0.97121558
0.0025527638 	0.043376206 	0.0013260382 	0.97121558
0.0025728643 	0.046271552 	0.0030964204 	0.96530479
0.0025929648 	0.046271552 	0.0030964204 	0.96530479
0.0026130653 	0.049276686 	0.0045431611 	0.95969642
0.0026331658 	0.049276686 	0.0045431611 	0.95969642
0.0026532663 	0.052240657 	0.0057502192 	0.95428921
0.0026733668 	0.052240657 	0.0057502192 	0.95428921
0.0026934673 	0.055034361 	0.006838207 	0.94895519
0.0027135678 	0.055034361 	0.006838207 	0.94895519
0.0027336683 	0.05755118 	0.0079438951 	0.94356444
0.0027537688 	0.05755118 	0.0079438951 	0.94356444
0.0027738693 	0.05970652 	0.0091988849 	0.93802301
0.0027939698 	0.05970652 	0.0091988849 	0.93802301
0.0028140704 	0.061433136 	0.01070104 	0.93227076
0.0028341709 	0.061433136 	0.01070104 	0.93227076
0.0028542714 	0.062673595 	0.012504163 	0.92630228
0.0028743719 	0.063402666 	0.014609236 	0.92014426
0.0028944724 	0.063402666 	0.014609236 	0.92014426
0.0029145729 	0.063618235 	0.016960882 	0.91384121
0.0029346734 	0.063618235 	0.016960882 	0.91384121
0.0029547739 	0.063342098 	0.019464455 	0.90745712
0.0029748744 	0.063342098 	0.019464455 	0.90745712
0.0029949749 	0.062621574 	0.021996421 	0.90105494
0.0030150754 	0.061508558 	0.024399978 	0.89466672
0.0030351759 	0.061508558 	0.024399978 	0.89466672
0.0030552764 	0.060067676 	0.026494932 	0.88830707
0.0030753769 	0.060067676 	0.026494932 	0.88830707
0.0030954774 	0.058370616 	0.028092508 	0.88197534
0.0031155779 	0.056499821 	0.029025216 	0.87565307
0.0031356784 	0.056499821 	0.029025216 	0.87565307
0.0031557789 	0.054536526 	0.029170567 	0.86929083
0.0031758794 	0.054536526 	0.029170567 	0.86929083
0.0031959799 	0.052546325 	0.028465606 	0.86280017
0.0032160804 	0.050561281 	0.026905248 	0.85605804
0.0032361809 	0.050561281 	0.026905248 	0.85605804
0.0032562814 	0.048582997 	0.024560395 	0.84893208
0.0032763819 	0.046599673 	0.021577565 	0.84131972
0.0032964824 	0.046599673 	0.021577565 	0.84131972
0.0033165829 	0.044563044 	0.01820761 	0.83317925
0.0033366834 	0.042377957 	0.014783736 	0.82454981
0.0033567839 	0.042377957 	0.014783736 	0.82454981
0.0033768844 	0.03996618 	0.011657465 	0.81554271
0.0033969849 	0.03728492 	0.0090955575 	0.80633105
0.0034170854 	0.03728492 	0.0090955575 	0.80633105
0.0034371859 	0.03427763 	0.0071389689 	0.79713466
0.0034572864 	0.030911366 	0.005543017 	0.78818428
0.0034773869 	0.02724204 	0.0038547943 	0.77968898
0.0034974874 	0.02724204 	0.0038547943 	0.77968898
0.0035175879 	0.023478761 	0.0016350164 	0.77178005
0.0035376884 	0.019959445 	-0.0013031436 	0.76447527
0.0035577889 	0.017074281 	-0.0047560842 	0.75770748
0.0035778894 	0.017074281 	-0.0047560842 	0.75770748
0.0035979899 	0.015103641 	-0.0081861394 	0.75144188
0.0036180905 	0.014085689 	-0.010965005 	0.74575304
0.003638191 	0.013836161 	-0.012724824 	0.74069234
0.0036582915 	0.013836161 	-0.012724824 	0.74069234
0.003678392 	0.014015256 	-0.01356611 	0.7359951
0.0036984925 	0.014236779 	-0.01397859 	0.730841
0.003718593 	0.014165375 	-0.014496978 	0.72380791
0.0037386935 	0.013585117 	-0.01531115 	0.71289233
0.003758794 	0.012438738 	-0.016080685 	0.69558827
0.0037788945 	0.012438738 	-0.016080685 	0.69558827
0.003798995 	0.010830321 	-0.016110671 	0.66921799
0.0038190955 	0.0089645624 	-0.014826236 	0.6316743
0.003839196 	0.0070629445 	-0.012230419 	0.58224137
0.0038592965 	0.0052922901 	-0.0089610923 	0.52186734
0.003879397 	0.003748832 	-0.0058950799 	0.45261845
0.0038994975 	0.0024741252 	-0.0036680789 	0.37677358
0.003919598 	0.0014737454 	-0.0024507794 	0.29625086
0.0039396985 	0.00073636063 	-0.0019763495 	0.21259679
0.003959799 	0.00025240163 	-0.0016719727 	0.12728664
0.0039798995 	1.8469114e-05 	-0.00085685469 	0.041985926
0.004 	1.8469114e-05 	-0.00085685469 	0.041985926
