0 	0.018555818 	-0.0067148501 	1.0306318
2.0100503e-05 	-0.00755633 	-0.016200151 	1.0269481
4.0201005e-05 	-0.00755633 	-0.016200151 	1.0269481
6.0301508e-05 	-0.01416383 	-0.0083603834 	1.0232092
8.040201e-05 	-0.01416383 	-0.0083603834 	1.0232092
0.00010050251 	-0.01416383 	-0.0083603834 	1.0232092
0.00012060302 	-0.015350385 	-0.0035090828 	1.0195582
0.00014070352 	-0.015350385 	-0.0035090828 	1.0195582
0.00016080402 	-0.015350385 	-0.0035090828 	1.0195582
0.00018090452 	-0.016016407 	0.00069057991 	1.0161805
0.00020100503 	-0.016016407 	0.00069057991 	1.0161805
0.00022110553 	-0.016016407 	0.00069057991 	1.0161805
0.00024120603 	-0.016716728 	0.0049007639 	1.0132794
0.00026130653 	-0.016716728 	0.0049007639 	1.0132794
0.00028140704 	-0.017511575 	0.0093855922 	1.0110424
0.00030150754 	-0.017511575 	0.0093855922 	1.0110424
0.00032160804 	-0.017511575 	0.0093855922 	1.0110424
0.00034170854 	-0.018320575 	0.014281156 	1.0095988
0.00036180905 	-0.018320575 	0.014281156 	1.0095988
0.00038190955 	-0.018320575 	0.014281156 	1.0095988
0.00040201005 	-0.018992503 	0.019619169 	1.0089755
0.00042211055 	-0.018992503 	0.019619169 	1.0089755
0.00044221106 	-0.018992503 	0.019619169 	1.0089755
0.00046231156 	-0.019337017 	0.02529425 	1.0090697
0.00048241206 	-0.019337017 	0.02529425 	1.0090697
0.00050251256 	-0.019162078 	0.031026837 	1.0096591
0.00052261307 	-0.019162078 	0.031026837 	1.0096591
0.00054271357 	-0.019162078 	0.031026837 	1.0096591
0.00056281407 	-0.018331258 	0.036386656 	1.0104403
0.00058291457 	-0.018331258 	0.036386656 	1.0104403
0.00060301508 	-0.018331258 	0.036386656 	1.0104403
0.00062311558 	-0.016794176 	0.040883231 	1.0110496
0.00064321608 	-0.016794176 	0.040883231 	1.0110496
0.00066331658 	-0.016794176 	0.040883231 	1.0110496
0.00068341709 	-0.014570926 	0.044071338 	1.0110569
0.00070351759 	-0.014570926 	0.044071338 	1.0110569
0.00072361809 	-0.011742561 	0.045616776 	1.010007
0.00074371859 	-0.011742561 	0.045616776 	1.010007
0.0007638191 	-0.011742561 	0.045616776 	1.010007
0.0007839196 	-0.0084208178 	0.045314734 	1.007552
0.0008040201 	-0.0084208178 	0.045314734 	1.007552
0.0008241206 	-0.0084208178 	0.045314734 	1.007552
0.00084422111 	-0.0047690821 	0.043077601 	1.0035885
0.00086432161 	-0.0047690821 	0.043077601 	1.0035885
0.00088442211 	-0.0047690821 	0.043077601 	1.0035885
0.00090452261 	-0.0010146165 	0.038935941 	0.99828801
0.00092462312 	-0.0010146165 	0.038935941 	0.99828801
0.00094472362 	0.0025251253 	0.033049988 	0.99196806
0.00096482412 	0.0025251253 	0.033049988 	0.99196806
0.00098492462 	0.0025251253 	0.033049988 	0.99196806
0.0010050251 	0.0056781224 	0.025236972 	0.98456942
0.0010251256 	0.0056781224 	0.025236972 	0.98456942
0.0010452261 	0.0056781224 	0.025236972 	0.98456942
0.0010653266 	0.0077296017 	0.015646493 	0.97647666
0.0010854271 	0.0077296017 	0.015646493 	0.97647666
0.0011055276 	0.0077296017 	0.015646493 	0.97647666
0.0011256281 	0.0082234957 	0.0051791363 	0.96844812
0.0011457286 	0.0082234957 	0.0051791363 	0.96844812
0.0011658291 	0.0082234957 	0.0051791363 	0.96844812
0.0011859296 	0.0072215465 	-0.0055552361 	0.96080236
0.0012060302 	0.0072215465 	-0.0055552361 	0.96080236
0.0012261307 	0.0072215465 	-0.0055552361 	0.96080236
0.0012462312 	0.0051459315 	-0.015804564 	0.95407394
0.0012663317 	0.0051459315 	-0.015804564 	0.95407394
0.0012864322 	0.0051459315 	-0.015804564 	0.95407394
0.0013065327 	0.0025093244 	-0.024781494 	0.94891058
0.0013266332 	0.0025093244 	-0.024781494 	0.94891058
0.0013467337 	0.0025093244 	-0.024781494 	0.94891058
0.0013668342 	-0.00019388165 	-0.031999048 	0.94539598
0.0013869347 	-0.00019388165 	-0.031999048 	0.94539598
0.0014070352 	-0.00019388165 	-0.031999048 	0.94539598
0.0014271357 	-0.0025731106 	-0.037280336 	0.94258238
0.0014472362 	-0.0025731106 	-0.037280336 	0.94258238
0.0014673367 	-0.0025731106 	-0.037280336 	0.94258238
0.0014874372 	-0.0042799049 	-0.04040938 	0.93899953
0.0015075377 	-0.0042799049 	-0.04040938 	0.93899953
0.0015276382 	-0.0050616154 	-0.040949824 	0.93383024
0.0015477387 	-0.0050616154 	-0.040949824 	0.93383024
0.0015678392 	-0.0050616154 	-0.040949824 	0.93383024
0.0015879397 	-0.0048707698 	-0.038484702 	0.92743041
0.0016080402 	-0.0048707698 	-0.038484702 	0.92743041
0.0016281407 	-0.0048707698 	-0.038484702 	0.92743041
0.0016482412 	-0.0038147181 	-0.033019863 	0.9208275
0.0016683417 	-0.0038147181 	-0.033019863 	0.9208275
0.0016884422 	-0.0021343683 	-0.025048654 	0.91475043
0.0017085427 	-0.0021343683 	-0.025048654 	0.91475043
0.0017286432 	-0.0021343683 	-0.025048654 	0.91475043
0.0017487437 	2.0482858e-05 	-0.01529853 	0.90917026
0.0017688442 	2.0482858e-05 	-0.01529853 	0.90917026
0.0017889447 	2.0482858e-05 	-0.01529853 	0.90917026
0.0018090452 	0.0026261154 	-0.0046262146 	0.90360496
0.0018291457 	0.0026261154 	-0.0046262146 	0.90360496
0.0018492462 	0.0057108603 	0.0060969555 	0.89767779
0.0018693467 	0.0057108603 	0.0060969555 	0.89767779
0.0018894472 	0.0057108603 	0.0060969555 	0.89767779
0.0019095477 	0.0092154636 	0.016047191 	0.89151486
0.0019296482 	0.0092154636 	0.016047191 	0.89151486
0.0019497487 	0.01295096 	0.024550913 	0.8856882
0.0019698492 	0.01295096 	0.024550913 	0.8856882
0.0019899497 	0.01295096 	0.024550913 	0.8856882
0.0020100503 	0.016726484 	0.031081323 	0.88075811
0.0020301508 	0.016726484 	0.031081323 	0.88075811
0.0020502513 	0.020382246 	0.035298298 	0.87699227
0.0020703518 	0.020382246 	0.035298298 	0.87699227
0.0020904523 	0.023838125 	0.037085209 	0.87430752
0.0021105528 	0.023838125 	0.037085209 	0.87430752
0.0021306533 	0.023838125 	0.037085209 	0.87430752
0.0021507538 	0.027061909 	0.036556767 	0.8724792
0.0021708543 	0.027061909 	0.036556767 	0.8724792
0.0021909548 	0.03006799 	0.034041405 	0.87138223
0.0022110553 	0.03006799 	0.034041405 	0.87138223
0.0022311558 	0.032830492 	0.030055155 	0.87111962
0.0022512563 	0.032830492 	0.030055155 	0.87111962
0.0022713568 	0.035197356 	0.025267184 	0.87196127
0.0022914573 	0.035197356 	0.025267184 	0.87196127
0.0023115578 	0.035197356 	0.025267184 	0.87196127
0.0023316583 	0.036810974 	0.020454592 	0.87414974
0.0023517588 	0.036810974 	0.020454592 	0.87414974
0.0023718593 	0.037130934 	0.016444731 	0.87768786
0.0023919598 	0.037130934 	0.016444731 	0.87768786
0.0024120603 	0.035615952 	0.013941635 	0.88219947
0.0024321608 	0.035615952 	0.013941635 	0.88219947
0.0024522613 	0.032001271 	0.013020884 	0.88699335
0.0024723618 	0.032001271 	0.013020884 	0.88699335
0.0024924623 	0.026585869 	0.0125396 	0.89134635
0.0025125628 	0.026585869 	0.0125396 	0.89134635
0.0025326633 	0.020184379 	0.010404947 	0.8948968
0.0025527638 	0.020184379 	0.010404947 	0.8948968
0.0025728643 	0.013686012 	0.0049819121 	0.89786956
0.0025929648 	0.013686012 	0.0049819121 	0.89786956
0.0026130653 	0.007497215 	-0.0036338269 	0.90092257
0.0026331658 	0.007497215 	-0.0036338269 	0.90092257
0.0026532663 	0.001545394 	-0.013825987 	0.9046027
0.0026733668 	0.001545394 	-0.013825987 	0.9046027
0.0026934673 	-0.0042625001 	-0.023818771 	0.90882615
0.0027135678 	-0.0042625001 	-0.023818771 	0.90882615
0.0027336683 	-0.0097798592 	-0.032572777 	0.91291116
0.0027537688 	-0.0097798592 	-0.032572777 	0.91291116
0.0027738693 	-0.014671422 	-0.039703234 	0.91599646
0.0027939698 	-0.014671422 	-0.039703234 	0.91599646
0.0028140704 	-0.018584611 	-0.045054449 	0.9175974
0.0028341709 	-0.018584611 	-0.045054449 	0.9175974
0.0028542714 	-0.021216109 	-0.048474743 	0.91770835
0.0028743719 	-0.022359553 	-0.049861779 	0.91658297
0.0028944724 	-0.022359553 	-0.049861779 	0.91658297
0.0029145729 	-0.02190075 	-0.049279872 	0.91450043
0.0029346734 	-0.02190075 	-0.049279872 	0.91450043
0.0029547739 	-0.019783069 	-0.046993281 	0.91165061
0.0029748744 	-0.019783069 	-0.046993281 	0.91165061
0.0029949749 	-0.016014737 	-0.0434209 	0.90812231
0.0030150754 	-0.010718084 	-0.039040804 	0.90394497
0.0030351759 	-0.010718084 	-0.039040804 	0.90394497
0.0030552764 	-0.0041934303 	-0.03427629 	0.89918198
0.0030753769 	-0.0041934303 	-0.03427629 	0.89918198
0.0030954774 	0.0030563524 	-0.029428485 	0.89402564
0.0031155779 	0.010431165 	-0.024679443 	0.88884554
0.0031356784 	0.010431165 	-0.024679443 	0.88884554
0.0031557789 	0.01735541 	-0.020161857 	0.88408046
0.0031758794 	0.01735541 	-0.020161857 	0.88408046
0.0031959799 	0.023336232 	-0.016033761 	0.88012175
0.0032160804 	0.028074783 	-0.012501963 	0.87722097
0.0032361809 	0.028074783 	-0.012501963 	0.87722097
0.0032562814 	0.03152765 	-0.0097942691 	0.87542371
0.0032763819 	0.033833257 	-0.0081275867 	0.87465483
0.0032964824 	0.033833257 	-0.0081275867 	0.87465483
0.0033165829 	0.035178156 	-0.0076424478 	0.87476317
0.0033366834 	0.035733754 	-0.0083915665 	0.87559084
0.0033567839 	0.035733754 	-0.0083915665 	0.87559084
0.0033768844 	0.035616832 	-0.01034545 	0.87699099
0.0033969849 	0.034871146 	-0.013403919 	0.87880123
0.0034170854 	0.034871146 	-0.013403919 	0.87880123
0.0034371859 	0.033468988 	-0.017396741 	0.88083416
0.0034572864 	0.031316772 	-0.022068682 	0.88291802
0.0034773869 	0.028314176 	-0.02705331 	0.88501551
0.0034974874 	0.028314176 	-0.02705331 	0.88501551
0.0035175879 	0.024364272 	-0.031806087 	0.88731115
0.0035376884 	0.019429586 	-0.03554096 	0.89003428
0.0035577889 	0.013722477 	-0.03724843 	0.89266485
0.0035778894 	0.013722477 	-0.03724843 	0.89266485
0.0035979899 	0.0078577809 	-0.035955634 	0.89244578
0.0036180905 	0.0028805867 	-0.031244027 	0.88315695
0.003638191 	-4.1026224e-05 	-0.023759039 	0.8561489
0.0036582915 	-4.1026224e-05 	-0.023759039 	0.8561489
0.003678392 	-0.00031772324 	-0.015224037 	0.80492966
0.0036984925 	0.001472724 	-0.0077455517 	0.73101495
0.003718593 	0.0037844428 	-0.0028703838 	0.64524112
0.0037386935 	0.0050479276 	-0.0008992305 	0.56183809
0.003758794 	0.0045883591 	-0.0009641585 	0.49050199
0.0037788945 	0.0045883591 	-0.0009641585 	0.49050199
0.003798995 	0.0028031572 	-0.0017094854 	0.43331645
0.0038190955 	0.00057289887 	-0.0020752061 	0.38700897
0.003839196 	-0.0013084305 	-0.0016777934 	0.34664252
0.0038592965 	-0.0023841671 	-0.00072256015 	0.30794524
0.003879397 	-0.0025927322 	0.00032927157 	0.26812099
0.0038994975 	-0.0021430305 	0.0010983023 	0.22578865
0.003919598 	-0.0013779081 	0.0014732209 	0.18048012
0.0039396985 	-0.00063659301 	0.001546971 	0.13216067
0.003959799 	-0.0001454066 	0.0013933674 	0.080968651
0.0039798995 	8.1579177e-06 	0.00082196016 	0.027396693
0.004 	8.1579177e-06 	0.00082196016 	0.027396693
