0 	0.0087754575 	-0.036636692 	1.1214643
2.0100503e-05 	0.035681372 	0.01018339 	1.1196939
4.0201005e-05 	0.035681372 	0.01018339 	1.1196939
6.0301508e-05 	0.0260043 	0.026243253 	1.1182171
8.040201e-05 	0.0260043 	0.026243253 	1.1182171
0.00010050251 	0.0260043 	0.026243253 	1.1182171
0.00012060302 	0.021228679 	0.030185983 	1.1171815
0.00014070352 	0.021228679 	0.030185983 	1.1171815
0.00016080402 	0.021228679 	0.030185983 	1.1171815
0.00018090452 	0.018362102 	0.031726563 	1.1167143
0.00020100503 	0.018362102 	0.031726563 	1.1167143
0.00022110553 	0.018362102 	0.031726563 	1.1167143
0.00024120603 	0.016384224 	0.0320761 	1.1168956
0.00026130653 	0.016384224 	0.0320761 	1.1168956
0.00028140704 	0.014885433 	0.031712405 	1.1177315
0.00030150754 	0.014885433 	0.031712405 	1.1177315
0.00032160804 	0.014885433 	0.031712405 	1.1177315
0.00034170854 	0.013596119 	0.03108473 	1.1191601
0.00036180905 	0.013596119 	0.03108473 	1.1191601
0.00038190955 	0.013596119 	0.03108473 	1.1191601
0.00040201005 	0.012289044 	0.030566416 	1.1209406
0.00042211055 	0.012289044 	0.030566416 	1.1209406
0.00044221106 	0.012289044 	0.030566416 	1.1209406
0.00046231156 	0.010740368 	0.030241629 	1.1222371
0.00048241206 	0.010740368 	0.030241629 	1.1222371
0.00050251256 	0.0086783242 	0.029806722 	1.1209797
0.00052261307 	0.0086783242 	0.029806722 	1.1209797
0.00054271357 	0.0086783242 	0.029806722 	1.1209797
0.00056281407 	0.0058047776 	0.028815833 	1.1137028
0.00058291457 	0.0058047776 	0.028815833 	1.1137028
0.00060301508 	0.0058047776 	0.028815833 	1.1137028
0.00062311558 	0.0019422108 	0.027259597 	1.097057
0.00064321608 	0.0019422108 	0.027259597 	1.097057
0.00066331658 	0.0019422108 	0.027259597 	1.097057
0.00068341709 	-0.0027398488 	0.025926092 	1.0710489
0.00070351759 	-0.0027398488 	0.025926092 	1.0710489
0.00072361809 	-0.00759022 	0.025838013 	1.0406484
0.00074371859 	-0.00759022 	0.025838013 	1.0406484
0.0007638191 	-0.00759022 	0.025838013 	1.0406484
0.0007839196 	-0.011730438 	0.027165546 	1.0126964
0.0008040201 	-0.011730438 	0.027165546 	1.0126964
0.0008241206 	-0.011730438 	0.027165546 	1.0126964
0.00084422111 	-0.014566967 	0.028645382 	0.99123899
0.00086432161 	-0.014566967 	0.028645382 	0.99123899
0.00088442211 	-0.014566967 	0.028645382 	0.99123899
0.00090452261 	-0.016084373 	0.028367057 	0.97651102
0.00092462312 	-0.016084373 	0.028367057 	0.97651102
0.00094472362 	-0.016617433 	0.024860065 	0.96703832
0.00096482412 	-0.016617433 	0.024860065 	0.96703832
0.00098492462 	-0.016617433 	0.024860065 	0.96703832
0.0010050251 	-0.016397277 	0.017348485 	0.96115503
0.0010251256 	-0.016397277 	0.017348485 	0.96115503
0.0010452261 	-0.016397277 	0.017348485 	0.96115503
0.0010653266 	-0.015505735 	0.0059374583 	0.95864037
0.0010854271 	-0.020102222 	0.0085852007 	0.95002375
0.0011055276 	-0.020102222 	0.0085852007 	0.95002375
0.0011256281 	-0.018562102 	-0.0044314101 	0.94811559
0.0011457286 	-0.018562102 	-0.0044314101 	0.94811559
0.0011658291 	-0.018562102 	-0.0044314101 	0.94811559
0.0011859296 	-0.017158028 	-0.017523048 	0.94741016
0.0012060302 	-0.017158028 	-0.017523048 	0.94741016
0.0012261307 	-0.017158028 	-0.017523048 	0.94741016
0.0012462312 	-0.016169107 	-0.029048794 	0.94622968
0.0012663317 	-0.016169107 	-0.029048794 	0.94622968
0.0012864322 	-0.016169107 	-0.029048794 	0.94622968
0.0013065327 	-0.01590389 	-0.037923862 	0.94325748
0.0013266332 	-0.01590389 	-0.037923862 	0.94325748
0.0013467337 	-0.01590389 	-0.037923862 	0.94325748
0.0013668342 	-0.016667747 	-0.043405036 	0.93782523
0.0013869347 	-0.016667747 	-0.043405036 	0.93782523
0.0014070352 	-0.016667747 	-0.043405036 	0.93782523
0.0014271357 	-0.018426887 	-0.044832877 	0.92925412
0.0014472362 	-0.018426887 	-0.044832877 	0.92925412
0.0014673367 	-0.018426887 	-0.044832877 	0.92925412
0.0014874372 	-0.020475169 	-0.041851731 	0.91647566
0.0015075377 	-0.020475169 	-0.041851731 	0.91647566
0.0015276382 	-0.022019528 	-0.035177852 	0.90030486
0.0015477387 	-0.022019528 	-0.035177852 	0.90030486
0.0015678392 	-0.022019528 	-0.035177852 	0.90030486
0.0015879397 	-0.023116683 	-0.026548422 	0.88608163
0.0016080402 	-0.023116683 	-0.026548422 	0.88608163
0.0016281407 	-0.023116683 	-0.026548422 	0.88608163
0.0016482412 	-0.024192934 	-0.017120141 	0.87994164
0.0016683417 	-0.024192934 	-0.017120141 	0.87994164
0.0016884422 	-0.025563605 	-0.0073521363 	0.88252523
0.0017085427 	-0.025563605 	-0.0073521363 	0.88252523
0.0017286432 	-0.025563605 	-0.0073521363 	0.88252523
0.0017487437 	-0.027609032 	0.001993156 	0.88991832
0.0017688442 	-0.027609032 	0.001993156 	0.88991832
0.0017889447 	-0.027609032 	0.001993156 	0.88991832
0.0018090452 	-0.030463045 	0.010415803 	0.89852827
0.0018291457 	-0.030463045 	0.010415803 	0.89852827
0.0018492462 	-0.03365182 	0.018351731 	0.90673392
0.0018693467 	-0.03365182 	0.018351731 	0.90673392
0.0018894472 	-0.03365182 	0.018351731 	0.90673392
0.0019095477 	-0.036356959 	0.026468633 	0.91392349
0.0019296482 	-0.036356959 	0.026468633 	0.91392349
0.0019497487 	-0.038044783 	0.035010239 	0.91961465
0.0019698492 	-0.038044783 	0.035010239 	0.91961465
0.0019899497 	-0.038044783 	0.035010239 	0.91961465
0.0020100503 	-0.038547886 	0.043805186 	0.92329505
0.0020301508 	-0.038547886 	0.043805186 	0.92329505
0.0020502513 	-0.037971368 	0.052493116 	0.92470206
0.0020703518 	-0.037971368 	0.052493116 	0.92470206
0.0020904523 	-0.036541025 	0.0606817 	0.92398076
0.0021105528 	-0.036541025 	0.0606817 	0.92398076
0.0021306533 	-0.036541025 	0.0606817 	0.92398076
0.0021507538 	-0.0345368 	0.068033958 	0.9215927
0.0021708543 	-0.0345368 	0.068033958 	0.9215927
0.0021909548 	-0.03229878 	0.074340656 	0.91811892
0.0022110553 	-0.03229878 	0.074340656 	0.91811892
0.0022311558 	-0.030086348 	0.079580044 	0.91408086
0.0022512563 	-0.030086348 	0.079580044 	0.91408086
0.0022713568 	-0.028053337 	0.083890836 	0.90975667
0.0022914573 	-0.028053337 	0.083890836 	0.90975667
0.0023115578 	-0.028053337 	0.083890836 	0.90975667
0.0023316583 	-0.026301625 	0.087476141 	0.90519248
0.0023517588 	-0.026301625 	0.087476141 	0.90519248
0.0023718593 	-0.024874355 	0.090489968 	0.90022708
0.0023919598 	-0.024874355 	0.090489968 	0.90022708
0.0024120603 	-0.023771854 	0.092935532 	0.89461867
0.0024321608 	-0.023771854 	0.092935532 	0.89461867
0.0024522613 	-0.02285397 	0.094647311 	0.88815064
0.0024723618 	-0.02285397 	0.094647311 	0.88815064
0.0024924623 	-0.02193633 	0.095339712 	0.88074582
0.0025125628 	-0.02193633 	0.095339712 	0.88074582
0.0025326633 	-0.020892707 	0.094626998 	0.87251173
0.0025527638 	-0.020892707 	0.094626998 	0.87251173
0.0025728643 	-0.019629319 	0.092125929 	0.86373479
0.0025929648 	-0.019629319 	0.092125929 	0.86373479
0.0026130653 	-0.018044739 	0.087571691 	0.85482948
0.0026331658 	-0.018044739 	0.087571691 	0.85482948
0.0026532663 	-0.016093593 	0.080834369 	0.84623259
0.0026733668 	-0.016093593 	0.080834369 	0.84623259
0.0026934673 	-0.013800229 	0.071982072 	0.83830634
0.0027135678 	-0.013800229 	0.071982072 	0.83830634
0.0027336683 	-0.011184192 	0.061263977 	0.83130223
0.0027537688 	-0.011184192 	0.061263977 	0.83130223
0.0027738693 	-0.0082864105 	0.049051727 	0.82531704
0.0027939698 	-0.0082864105 	0.049051727 	0.82531704
0.0028140704 	-0.005156043 	0.035770025 	0.82032547
0.0028341709 	-0.005156043 	0.035770025 	0.82032547
0.0028542714 	-0.0017999383 	0.021853243 	0.81621038
0.0028743719 	0.0016935701 	0.0077175677 	0.81285811
0.0028944724 	0.0016935701 	0.0077175677 	0.81285811
0.0029145729 	0.0052137002 	-0.006322079 	0.8101793
0.0029346734 	0.0052137002 	-0.006322079 	0.8101793
0.0029547739 	0.0087203397 	-0.020076418 	0.80813133
0.0029748744 	0.0087203397 	-0.020076418 	0.80813133
0.0029949749 	0.012112106 	-0.033465623 	0.80667611
0.0030150754 	0.015271379 	-0.046532286 	0.80575534
0.0030351759 	0.015271379 	-0.046532286 	0.80575534
0.0030552764 	0.018152148 	-0.059375672 	0.80528769
0.0030753769 	0.018152148 	-0.059375672 	0.80528769
0.0030954774 	0.020759371 	-0.072095411 	0.8051883
0.0031155779 	0.023157211 	-0.084715894 	0.80535784
0.0031356784 	0.023157211 	-0.084715894 	0.80535784
0.0031557789 	0.025440035 	-0.09712011 	0.80557992
0.0031758794 	0.025440035 	-0.09712011 	0.80557992
0.0031959799 	0.027716819 	-0.10899098 	0.805288
0.0032160804 	0.03004665 	-0.11979403 	0.80332759
0.0032361809 	0.03004665 	-0.11979403 	0.80332759
0.0032562814 	0.032369001 	-0.12880325 	0.79800869
0.0032763819 	0.034455452 	-0.13520344 	0.78766354
0.0032964824 	0.034455452 	-0.13520344 	0.78766354
0.0033165829 	0.03593567 	-0.13823676 	0.77153913
0.0033366834 	0.036438454 	-0.13739738 	0.75035959
0.0033567839 	0.036438454 	-0.13739738 	0.75035959
0.0033768844 	0.035761063 	-0.1325258 	0.72608888
0.0033969849 	0.033932146 	-0.12376055 	0.70116713
0.0034170854 	0.033932146 	-0.12376055 	0.70116713
0.0034371859 	0.031143929 	-0.11135064 	0.67788475
0.0034572864 	0.027587889 	-0.095491262 	0.65818855
0.0034773869 	0.023330671 	-0.076327388 	0.64364283
0.0034974874 	0.023330671 	-0.076327388 	0.64364283
0.0035175879 	0.018392222 	-0.054155697 	0.63510521
0.0035376884 	0.012932208 	-0.029772874 	0.63213885
0.0035577889 	0.0075567899 	-0.0047152868 	0.63300536
0.0035778894 	0.0075567899 	-0.0047152868 	0.63300536
0.0035979899 	0.0027182039 	0.019007835 	0.63567947
0.0036180905 	-0.0013827312 	0.039966505 	0.63931642
0.003638191 	-0.0046968134 	0.057945574 	0.6438839
0.0036582915 	-0.0046968134 	0.057945574 	0.6438839
0.003678392 	-0.0076712473 	0.073634646 	0.64743561
0.0036984925 	-0.010526252 	0.08757653 	0.64422141
0.003718593 	-0.012918365 	0.099244731 	0.62634728
0.0037386935 	-0.014253861 	0.10670595 	0.58833775
0.003758794 	-0.014178702 	0.10736233 	0.53114507
0.0037788945 	-0.014178702 	0.10736233 	0.53114507
0.003798995 	-0.012875303 	0.099944689 	0.46211082
0.0038190955 	-0.010887164 	0.08609316 	0.39069821
0.003839196 	-0.0087501825 	0.069628159 	0.3239165
0.0038592965 	-0.0067804723 	0.054296984 	0.26475798
0.003879397 	-0.0050795155 	0.042174376 	0.21320535
0.0038994975 	-0.0036308566 	0.033516627 	0.16781868
0.003919598 	-0.0023891852 	0.027389852 	0.12683129
0.0039396985 	-0.0013396846 	0.02223706 	0.088690139
0.003959799 	-0.00052854535 	0.016113677 	0.052275697
0.0039798995 	-4.5549544e-05 	0.0068923932 	0.017026844
0.004 	-4.5549544e-05 	0.0068923932 	0.017026844
