0 	-0.022810862 	0.028310024 	1.0706421
2.0100503e-05 	-0.022810862 	0.028310024 	1.0706421
4.0201005e-05 	-0.022810862 	0.028310024 	1.0706421
6.0301508e-05 	-0.035814165 	0.015792851 	1.0598096
8.040201e-05 	-0.035814165 	0.015792851 	1.0598096
0.00010050251 	-0.035814165 	0.015792851 	1.0598096
0.00012060302 	-0.040254991 	0.011236264 	1.0499219
0.00014070352 	-0.040254991 	0.011236264 	1.0499219
0.00016080402 	-0.040254991 	0.011236264 	1.0499219
0.00018090452 	-0.043429761 	0.008589946 	1.0412946
0.00020100503 	-0.043429761 	0.008589946 	1.0412946
0.00022110553 	-0.043429761 	0.008589946 	1.0412946
0.00024120603 	-0.046069173 	0.0066974698 	1.0338776
0.00026130653 	-0.046069173 	0.0066974698 	1.0338776
0.00028140704 	-0.048376542 	0.0054496082 	1.0273341
0.00030150754 	-0.048376542 	0.0054496082 	1.0273341
0.00032160804 	-0.048376542 	0.0054496082 	1.0273341
0.00034170854 	-0.050581413 	0.0051396147 	1.0211664
0.00036180905 	-0.050581413 	0.0051396147 	1.0211664
0.00038190955 	-0.050581413 	0.0051396147 	1.0211664
0.00040201005 	-0.053023262 	0.0063020371 	1.0150078
0.00042211055 	-0.053023262 	0.0063020371 	1.0150078
0.00044221106 	-0.053023262 	0.0063020371 	1.0150078
0.00046231156 	-0.056015607 	0.0094461108 	1.0089754
0.00048241206 	-0.056015607 	0.0094461108 	1.0089754
0.00050251256 	-0.059613433 	0.014664173 	1.0037307
0.00052261307 	-0.059613433 	0.014664173 	1.0037307
0.00054271357 	-0.059613433 	0.014664173 	1.0037307
0.00056281407 	-0.063512596 	0.021421293 	1.0000801
0.00058291457 	-0.063512596 	0.021421293 	1.0000801
0.00060301508 	-0.063512596 	0.021421293 	1.0000801
0.00062311558 	-0.067155788 	0.028734181 	0.99846825
0.00064321608 	-0.067155788 	0.028734181 	0.99846825
0.00066331658 	-0.067155788 	0.028734181 	0.99846825
0.00068341709 	-0.069933506 	0.035588753 	0.99881041
0.00070351759 	-0.069933506 	0.035588753 	0.99881041
0.00072361809 	-0.071351421 	0.041291922 	1.0006868
0.00074371859 	-0.071351421 	0.041291922 	1.0006868
0.0007638191 	-0.071351421 	0.041291922 	1.0006868
0.0007839196 	-0.071111643 	0.045565809 	1.0035515
0.0008040201 	-0.071111643 	0.045565809 	1.0035515
0.0008241206 	-0.071111643 	0.045565809 	1.0035515
0.00084422111 	-0.069095737 	0.048431879 	1.0068047
0.00086432161 	-0.069095737 	0.048431879 	1.0068047
0.00088442211 	-0.069095737 	0.048431879 	1.0068047
0.00090452261 	-0.065314064 	0.04997717 	1.0097991
0.00092462312 	-0.065314064 	0.04997717 	1.0097991
0.00094472362 	-0.059888133 	0.050192075 	1.0118857
0.00096482412 	-0.059888133 	0.050192075 	1.0118857
0.00098492462 	-0.059888133 	0.050192075 	1.0118857
0.0010050251 	-0.054678599 	0.050588823 	1.0173982
0.0010251256 	-0.054678599 	0.050588823 	1.0173982
0.0010452261 	-0.054678599 	0.050588823 	1.0173982
0.0010653266 	-0.046297498 	0.049321942 	1.0183172
0.0010854271 	-0.046297498 	0.049321942 	1.0183172
0.0011055276 	-0.046297498 	0.049321942 	1.0183172
0.0011256281 	-0.037632584 	0.046249385 	1.0165152
0.0011457286 	-0.037632584 	0.046249385 	1.0165152
0.0011658291 	-0.037632584 	0.046249385 	1.0165152
0.0011859296 	-0.029239258 	0.041294659 	1.0127276
0.0012060302 	-0.029239258 	0.041294659 	1.0127276
0.0012261307 	-0.029239258 	0.041294659 	1.0127276
0.0012462312 	-0.021923967 	0.034895548 	1.008408
0.0012663317 	-0.021923967 	0.034895548 	1.008408
0.0012864322 	-0.021923967 	0.034895548 	1.008408
0.0013065327 	-0.015901683 	0.027456424 	1.0051397
0.0013266332 	-0.015901683 	0.027456424 	1.0051397
0.0013467337 	-0.015901683 	0.027456424 	1.0051397
0.0013668342 	-0.011237032 	0.019422611 	1.0041501
0.0013869347 	-0.011237032 	0.019422611 	1.0041501
0.0014070352 	-0.011237032 	0.019422611 	1.0041501
0.0014271357 	-0.0078333094 	0.011266114 	1.0059024
0.0014472362 	-0.0078333094 	0.011266114 	1.0059024
0.0014673367 	-0.0078333094 	0.011266114 	1.0059024
0.0014874372 	-0.0056006715 	0.003477845 	1.009959
0.0015075377 	-0.0056006715 	0.003477845 	1.009959
0.0015276382 	-0.0043801185 	-0.0034489047 	1.0151568
0.0015477387 	-0.0043801185 	-0.0034489047 	1.0151568
0.0015678392 	-0.0043801185 	-0.0034489047 	1.0151568
0.0015879397 	-0.0038844905 	-0.0091225966 	1.0200517
0.0016080402 	-0.0038844905 	-0.0091225966 	1.0200517
0.0016281407 	-0.0038844905 	-0.0091225966 	1.0200517
0.0016482412 	-0.0037324994 	-0.013347892 	1.0234073
0.0016683417 	-0.0037324994 	-0.013347892 	1.0234073
0.0016884422 	-0.0035511295 	-0.016154548 	1.0245042
0.0017085427 	-0.0035511295 	-0.016154548 	1.0245042
0.0017286432 	-0.0035511295 	-0.016154548 	1.0245042
0.0017487437 	-0.0030505465 	-0.017856503 	1.0232416
0.0017688442 	-0.0030505465 	-0.017856503 	1.0232416
0.0017889447 	-0.0030505465 	-0.017856503 	1.0232416
0.0018090452 	-0.0021088094 	-0.018924003 	1.0200661
0.0018291457 	-0.0021088094 	-0.018924003 	1.0200661
0.0018492462 	-0.00080075066 	-0.019836023 	1.01581
0.0018693467 	-0.00080075066 	-0.019836023 	1.01581
0.0018894472 	-0.00080075066 	-0.019836023 	1.01581
0.0019095477 	0.00070958261 	-0.020893223 	1.011408
0.0019296482 	0.00070958261 	-0.020893223 	1.011408
0.0019497487 	0.0022855682 	-0.022091166 	1.0076169
0.0019698492 	0.0022855682 	-0.022091166 	1.0076169
0.0019899497 	0.0022855682 	-0.022091166 	1.0076169
0.0020100503 	0.003900996 	-0.023195766 	1.004828
0.0020301508 	0.003900996 	-0.023195766 	1.004828
0.0020502513 	0.0056579316 	-0.023929085 	1.0030092
0.0020703518 	0.0056579316 	-0.023929085 	1.0030092
0.0020904523 	0.0076924158 	-0.024177177 	1.0017562
0.0021105528 	0.0076924158 	-0.024177177 	1.0017562
0.0021306533 	0.0076924158 	-0.024177177 	1.0017562
0.0021507538 	0.010070818 	-0.024110444 	1.0004503
0.0021708543 	0.010070818 	-0.024110444 	1.0004503
0.0021909548 	0.012734724 	-0.024226569 	0.9984712
0.0022110553 	0.012734724 	-0.024226569 	0.9984712
0.0022311558 	0.015507493 	-0.025319799 	0.99543005
0.0022512563 	0.015507493 	-0.025319799 	0.99543005
0.0022713568 	0.01815868 	-0.028305798 	0.99121245
0.0022914573 	0.01815868 	-0.028305798 	0.99121245
0.0023115578 	0.01815868 	-0.028305798 	0.99121245
0.0023316583 	0.020522863 	-0.033929131 	0.98585457
0.0023517588 	0.020522863 	-0.033929131 	0.98585457
0.0023718593 	0.022674264 	-0.042474131 	0.97931396
0.0023919598 	0.022674264 	-0.042474131 	0.97931396
0.0024120603 	0.02491618 	-0.053646931 	0.97139936
0.0024321608 	0.02491618 	-0.053646931 	0.97139936
0.0024522613 	0.027543242 	-0.066617342 	0.96190679
0.0024723618 	0.027543242 	-0.066617342 	0.96190679
0.0024924623 	0.030755355 	-0.080155068 	0.95085879
0.0025125628 	0.030755355 	-0.080155068 	0.95085879
0.0025326633 	0.034638684 	-0.092770248 	0.93862547
0.0025527638 	0.034638684 	-0.092770248 	0.93862547
0.0025728643 	0.039178169 	-0.10288886 	0.92588619
0.0025929648 	0.039178169 	-0.10288886 	0.92588619
0.0026130653 	0.044255488 	-0.10913062 	0.91354545
0.0026331658 	0.044255488 	-0.10913062 	0.91354545
0.0026532663 	0.04954848 	-0.11086267 	0.90274231
0.0026733668 	0.04954848 	-0.11086267 	0.90274231
0.0026934673 	0.054462022 	-0.1084889 	0.89463133
0.0027135678 	0.054462022 	-0.1084889 	0.89463133
0.0027336683 	0.058294088 	-0.10320629 	0.88999831
0.0027537688 	0.058294088 	-0.10320629 	0.88999831
0.0027738693 	0.060519099 	-0.096302243 	0.88886526
0.0027939698 	0.060519099 	-0.096302243 	0.88886526
0.0028140704 	0.060964484 	-0.088437548 	0.89019759
0.0028341709 	0.060964484 	-0.088437548 	0.89019759
0.0028542714 	0.059877242 	-0.079317159 	0.89190979
0.0028743719 	0.057884915 	-0.068008805 	0.89138107
0.0028944724 	0.057884915 	-0.068008805 	0.89138107
0.0029145729 	0.055793416 	-0.05385072 	0.8863222
0.0029346734 	0.055793416 	-0.05385072 	0.8863222
0.0029547739 	0.054289698 	-0.037267331 	0.87546156
0.0029748744 	0.054289698 	-0.037267331 	0.87546156
0.0029949749 	0.053738805 	-0.019729931 	0.85876915
0.0030150754 	0.054242947 	-0.0030132865 	0.83740878
0.0030351759 	0.054242947 	-0.0030132865 	0.83740878
0.0030552764 	0.055592191 	0.011510979 	0.81332381
0.0030753769 	0.055592191 	0.011510979 	0.81332381
0.0030954774 	0.057351743 	0.023053319 	0.78866348
0.0031155779 	0.059073089 	0.031162555 	0.76537485
0.0031356784 	0.059073089 	0.031162555 	0.76537485
0.0031557789 	0.060352343 	0.0356515 	0.74499161
0.0031758794 	0.060352343 	0.0356515 	0.74499161
0.0031959799 	0.060868302 	0.036635808 	0.72855428
0.0032160804 	0.060423787 	0.034628475 	0.71659443
0.0032361809 	0.060423787 	0.034628475 	0.71659443
0.0032562814 	0.059035398 	0.030494209 	0.70913766
0.0032763819 	0.056980755 	0.025165491 	0.70567678
0.0032964824 	0.056980755 	0.025165491 	0.70567678
0.0033165829 	0.054629209 	0.019372394 	0.70516914
0.0033366834 	0.052119528 	0.013660722 	0.70629943
0.0033567839 	0.052119528 	0.013660722 	0.70629943
0.0033768844 	0.04913686 	0.0085479636 	0.70822567
0.0033969849 	0.045001775 	0.0042755242 	0.71146627
0.0034170854 	0.045001775 	0.0042755242 	0.71146627
0.0034371859 	0.039056904 	0.00024725797 	0.71772751
0.0034572864 	0.031193427 	-0.0050285296 	0.72777383
0.0034773869 	0.02219236 	-0.012884236 	0.73874351
0.0034974874 	0.02219236 	-0.012884236 	0.73874351
0.0035175879 	0.013460496 	-0.023160124 	0.74375346
0.0035376884 	0.0063724171 	-0.033885976 	0.73496763
0.0035577889 	0.0016641298 	-0.042383212 	0.70799852
0.0035778894 	0.0016641298 	-0.042383212 	0.70799852
0.0035979899 	-0.00075462071 	-0.046866327 	0.66423459
0.0036180905 	-0.0014094451 	-0.047247871 	0.60946929
0.003638191 	-0.00092732963 	-0.044716322 	0.55053795
0.0036582915 	-0.00092732963 	-0.044716322 	0.55053795
0.003678392 	8.1312141e-05 	-0.040763451 	0.49277492
0.0036984925 	0.0011416442 	-0.03651638 	0.43937413
0.003718593 	0.0019401331 	-0.03258059 	0.39170893
0.0037386935 	0.002357274 	-0.029150814 	0.34981459
0.003758794 	0.0024338956 	-0.02618603 	0.31288666
0.0037788945 	0.0024338956 	-0.02618603 	0.31288666
0.003798995 	0.0022871957 	-0.023564086 	0.2797501
0.0038190955 	0.0020337525 	-0.021172341 	0.24919487
0.003839196 	0.0017513306 	-0.018939396 	0.22014612
0.0038592965 	0.0014756089 	-0.016823017 	0.19172041
0.003879397 	0.0012120134 	-0.014781269 	0.16323655
0.0038994975 	0.00095132066 	-0.012747143 	0.13422649
0.003919598 	0.00068416748 	-0.010616429 	0.1044698
0.0039396985 	0.00041518103 	-0.0082508914 	0.074062293
0.003959799 	0.00017531998 	-0.0054893256 	0.043513511
0.0039798995 	1.9226277e-05 	-0.0021388707 	0.013819911
0.004 	1.9226277e-05 	-0.0021388707 	0.013819911
