0 	-0.021141308 	-0.017064078 	1.0974258
2.0100503e-05 	-0.021141308 	-0.017064078 	1.0974258
4.0201005e-05 	-0.021141308 	-0.017064078 	1.0974258
6.0301508e-05 	-0.025307984 	-0.0039769155 	1.0948387
8.040201e-05 	-0.025307984 	-0.0039769155 	1.0948387
0.00010050251 	-0.025307984 	-0.0039769155 	1.0948387
0.00012060302 	-0.023511153 	0.0012361934 	1.0901747
0.00014070352 	-0.023511153 	0.0012361934 	1.0901747
0.00016080402 	-0.023511153 	0.0012361934 	1.0901747
0.00018090452 	-0.020385692 	0.0047443994 	1.0833868
0.00020100503 	-0.020385692 	0.0047443994 	1.0833868
0.00022110553 	-0.020385692 	0.0047443994 	1.0833868
0.00024120603 	-0.01621998 	0.0076605075 	1.0744859
0.00026130653 	-0.01621998 	0.0076605075 	1.0744859
0.00028140704 	-0.0040417502 	0.015993719 	1.0798438
0.00030150754 	-0.0040417502 	0.015993719 	1.0798438
0.00032160804 	-0.0040417502 	0.015993719 	1.0798438
0.00034170854 	-0.0050472369 	0.012534222 	1.0509828
0.00036180905 	-0.0050472369 	0.012534222 	1.0509828
0.00038190955 	-0.0050472369 	0.012534222 	1.0509828
0.00040201005 	0.0016998189 	0.014504446 	1.0371079
0.00042211055 	0.0016998189 	0.014504446 	1.0371079
0.00044221106 	0.0016998189 	0.014504446 	1.0371079
0.00046231156 	0.0089265392 	0.016081245 	1.0225682
0.00048241206 	0.0089265392 	0.016081245 	1.0225682
0.00050251256 	0.016316489 	0.017160904 	1.0080427
0.00052261307 	0.016316489 	0.017160904 	1.0080427
0.00054271357 	0.016316489 	0.017160904 	1.0080427
0.00056281407 	0.023494289 	0.017635544 	0.9941622
0.00058291457 	0.023494289 	0.017635544 	0.9941622
0.00060301508 	0.023494289 	0.017635544 	0.9941622
0.00062311558 	0.035463477 	0.017882894 	1.0100522
0.00064321608 	0.035463477 	0.017882894 	1.0100522
0.00066331658 	0.035463477 	0.017882894 	1.0100522
0.00068341709 	0.041389228 	0.016635862 	0.99780712
0.00070351759 	0.035713098 	0.016633409 	0.96992476
0.00072361809 	0.0402128 	0.015350256 	0.95978105
0.00074371859 	0.0402128 	0.015350256 	0.95978105
0.0007638191 	0.0402128 	0.015350256 	0.95978105
0.0007839196 	0.043522295 	0.013819351 	0.95079267
0.0008040201 	0.043522295 	0.013819351 	0.95079267
0.0008241206 	0.043522295 	0.013819351 	0.95079267
0.00084422111 	0.045797903 	0.012329527 	0.94271076
0.00086432161 	0.045797903 	0.012329527 	0.94271076
0.00088442211 	0.045797903 	0.012329527 	0.94271076
0.00090452261 	0.047244455 	0.011185878 	0.93524668
0.00092462312 	0.047244455 	0.011185878 	0.93524668
0.00094472362 	0.048364341 	0.010831769 	0.92818301
0.00096482412 	0.048364341 	0.010831769 	0.92818301
0.00098492462 	0.048364341 	0.010831769 	0.92818301
0.0010050251 	0.049142885 	0.01138227 	0.92062913
0.0010251256 	0.049142885 	0.01138227 	0.92062913
0.0010452261 	0.049142885 	0.01138227 	0.92062913
0.0010653266 	0.049670071 	0.013139175 	0.9134162
0.0010854271 	0.049670071 	0.013139175 	0.9134162
0.0011055276 	0.049670071 	0.013139175 	0.9134162
0.0011256281 	0.049796796 	0.015334795 	0.90831657
0.0011457286 	0.049796796 	0.015334795 	0.90831657
0.0011658291 	0.049796796 	0.015334795 	0.90831657
0.0011859296 	0.048838769 	0.016906252 	0.90734021
0.0012060302 	0.048838769 	0.016906252 	0.90734021
0.0012261307 	0.048838769 	0.016906252 	0.90734021
0.0012462312 	0.046280498 	0.01699205 	0.9120682
0.0012663317 	0.046280498 	0.01699205 	0.9120682
0.0012864322 	0.046280498 	0.01699205 	0.9120682
0.0013065327 	0.042276051 	0.01536363 	0.9217061
0.0013266332 	0.042276051 	0.01536363 	0.9217061
0.0013467337 	0.042276051 	0.01536363 	0.9217061
0.0013668342 	0.037712772 	0.012114923 	0.93264393
0.0013869347 	0.037712772 	0.012114923 	0.93264393
0.0014070352 	0.037712772 	0.012114923 	0.93264393
0.0014271357 	0.033723755 	0.0070812722 	0.94084685
0.0014472362 	0.033723755 	0.0070812722 	0.94084685
0.0014673367 	0.033723755 	0.0070812722 	0.94084685
0.0014874372 	0.031003663 	5.0766798e-05 	0.94469294
0.0015075377 	0.031003663 	5.0766798e-05 	0.94469294
0.0015276382 	0.029563882 	-0.0086530036 	0.94529142
0.0015477387 	0.029563882 	-0.0086530036 	0.94529142
0.0015678392 	0.029563882 	-0.0086530036 	0.94529142
0.0015879397 	0.029022363 	-0.018051903 	0.94489819
0.0016080402 	0.029022363 	-0.018051903 	0.94489819
0.0016281407 	0.029022363 	-0.018051903 	0.94489819
0.0016482412 	0.029048608 	-0.026899358 	0.94512698
0.0016683417 	0.029048608 	-0.026899358 	0.94512698
0.0016884422 	0.029523034 	-0.034180205 	0.94649699
0.0017085427 	0.029523034 	-0.034180205 	0.94649699
0.0017286432 	0.029523034 	-0.034180205 	0.94649699
0.0017487437 	0.03035603 	-0.039348603 	0.9486747
0.0017688442 	0.03035603 	-0.039348603 	0.9486747
0.0017889447 	0.03035603 	-0.039348603 	0.9486747
0.0018090452 	0.031409317 	-0.042331023 	0.95088869
0.0018291457 	0.031409317 	-0.042331023 	0.95088869
0.0018492462 	0.032476264 	-0.043411259 	0.95229712
0.0018693467 	0.032476264 	-0.043411259 	0.95229712
0.0018894472 	0.032476264 	-0.043411259 	0.95229712
0.0019095477 	0.033297968 	-0.04307713 	0.95227197
0.0019296482 	0.033297968 	-0.04307713 	0.95227197
0.0019497487 	0.033641585 	-0.041914086 	0.95062539
0.0019698492 	0.033641585 	-0.041914086 	0.95062539
0.0019899497 	0.033384244 	-0.040450832 	0.94759926
0.0020100503 	0.033384244 	-0.040450832 	0.94759926
0.0020301508 	0.033384244 	-0.040450832 	0.94759926
0.0020502513 	0.032541875 	-0.039108398 	0.94370917
0.0020703518 	0.032541875 	-0.039108398 	0.94370917
0.0020904523 	0.03123252 	-0.038132834 	0.93949129
0.0021105528 	0.03123252 	-0.038132834 	0.93949129
0.0021306533 	0.03123252 	-0.038132834 	0.93949129
0.0021507538 	0.029600577 	-0.037636764 	0.9354146
0.0021708543 	0.029600577 	-0.037636764 	0.9354146
0.0021909548 	0.027769978 	-0.03762604 	0.93182173
0.0022110553 	0.027769978 	-0.03762604 	0.93182173
0.0022311558 	0.025835991 	-0.03806924 	0.92893462
0.0022512563 	0.025835991 	-0.03806924 	0.92893462
0.0022713568 	0.023884387 	-0.0389488 	0.92688253
0.0022914573 	0.023884387 	-0.0389488 	0.92688253
0.0023115578 	0.023884387 	-0.0389488 	0.92688253
0.0023316583 	0.022006661 	-0.040251826 	0.9256701
0.0023517588 	0.022006661 	-0.040251826 	0.9256701
0.0023718593 	0.020304206 	-0.041990163 	0.92521184
0.0023919598 	0.020304206 	-0.041990163 	0.92521184
0.0024120603 	0.018884026 	-0.044160022 	0.92532754
0.0024321608 	0.018884026 	-0.044160022 	0.92532754
0.0024522613 	0.017859342 	-0.046717895 	0.92577811
0.0024723618 	0.017859342 	-0.046717895 	0.92577811
0.0024924623 	0.017330793 	-0.049555558 	0.92631228
0.0025125628 	0.017330793 	-0.049555558 	0.92631228
0.0025326633 	0.017361319 	-0.052505538 	0.92673525
0.0025527638 	0.017361319 	-0.052505538 	0.92673525
0.0025728643 	0.01799349 	-0.055348207 	0.92693907
0.0025929648 	0.01799349 	-0.055348207 	0.92693907
0.0026130653 	0.019244147 	-0.057838989 	0.9269093
0.0026331658 	0.019244147 	-0.057838989 	0.9269093
0.0026532663 	0.021089966 	-0.059737039 	0.92670491
0.0026733668 	0.021089966 	-0.059737039 	0.92670491
0.0026934673 	0.023488037 	-0.060825748 	0.92642001
0.0027135678 	0.023488037 	-0.060825748 	0.92642001
0.0027336683 	0.026385775 	-0.060931968 	0.92614655
0.0027537688 	0.026385775 	-0.060931968 	0.92614655
0.0027738693 	0.029709005 	-0.059941116 	0.92596389
0.0027939698 	0.029709005 	-0.059941116 	0.92596389
0.0028140704 	0.033383948 	-0.057783684 	0.92593488
0.0028341709 	0.033383948 	-0.057783684 	0.92593488
0.0028542714 	0.037338302 	-0.05444121 	0.92611899
0.0028743719 	0.041490728 	-0.049954183 	0.92658917
0.0028944724 	0.041490728 	-0.049954183 	0.92658917
0.0029145729 	0.045755696 	-0.04440363 	0.92739178
0.0029346734 	0.045755696 	-0.04440363 	0.92739178
0.0029547739 	0.050060052 	-0.037932796 	0.92854041
0.0029748744 	0.050060052 	-0.037932796 	0.92854041
0.0029949749 	0.054347134 	-0.030744246 	0.9299764
0.0030150754 	0.058537089 	-0.023050408 	0.93154173
0.0030351759 	0.058537089 	-0.023050408 	0.93154173
0.0030552764 	0.062538614 	-0.015064393 	0.93296062
0.0030753769 	0.062538614 	-0.015064393 	0.93296062
0.0030954774 	0.066276669 	-0.0069818207 	0.93388555
0.0031155779 	0.069681577 	0.0010174362 	0.93394173
0.0031356784 	0.069681577 	0.0010174362 	0.93394173
0.0031557789 	0.072680779 	0.0087807702 	0.93280159
0.0031758794 	0.072680779 	0.0087807702 	0.93280159
0.0031959799 	0.075164603 	0.016175277 	0.93024619
0.0032160804 	0.077038449 	0.023126508 	0.9262317
0.0032361809 	0.077038449 	0.023126508 	0.9262317
0.0032562814 	0.078256766 	0.029656137 	0.92090649
0.0032763819 	0.078751359 	0.035920304 	0.91451126
0.0032964824 	0.078751359 	0.035920304 	0.91451126
0.0033165829 	0.078406706 	0.042229027 	0.90713685
0.0033366834 	0.077090096 	0.048869833 	0.89837172
0.0033567839 	0.077090096 	0.048869833 	0.89837172
0.0033768844 	0.074690354 	0.055729082 	0.88709184
0.0033969849 	0.071181731 	0.061868562 	0.8718912
0.0034170854 	0.071181731 	0.061868562 	0.8718912
0.0034371859 	0.066713345 	0.065511284 	0.85218492
0.0034572864 	0.061641328 	0.06475408 	0.82907043
0.0034773869 	0.056394401 	0.058561763 	0.80499392
0.0034974874 	0.056394401 	0.058561763 	0.80499392
0.0035175879 	0.051264066 	0.04716408 	0.78257025
0.0035376884 	0.046308176 	0.031590317 	0.76375388
0.0035577889 	0.041296352 	0.012936949 	0.74956431
0.0035778894 	0.041296352 	0.012936949 	0.74956431
0.0035979899 	0.036056616 	-0.0081075454 	0.74020629
0.0036180905 	0.030498162 	-0.031422474 	0.73534942
0.003638191 	0.024455543 	-0.057120847 	0.7344342
0.0036582915 	0.024455543 	-0.057120847 	0.7344342
0.003678392 	0.017901562 	-0.084645598 	0.73634163
0.0036984925 	0.011167876 	-0.11150083 	0.73805567
0.003718593 	0.0050772682 	-0.13262943 	0.73353573
0.0037386935 	0.00071237426 	-0.1418093 	0.71520052
0.003758794 	-0.0013375511 	-0.13501581 	0.67856366
0.0037788945 	-0.0013375511 	-0.13501581 	0.67856366
0.003798995 	-0.0015339893 	-0.11345956 	0.62590905
0.0038190955 	-0.0010328665 	-0.083398962 	0.56451834
0.003839196 	-0.00073186013 	-0.052709615 	0.5010116
0.0038592965 	-0.00081342648 	-0.027323792 	0.43791554
0.003879397 	-0.00099549044 	-0.0098827539 	0.37468577
0.0038994975 	-0.0010235249 	-0.00032202849 	0.31018613
0.003919598 	-0.00083447811 	0.0029222534 	0.24382645
0.0039396985 	-0.00052898485 	0.0019816943 	0.17549357
0.003959799 	-0.00026664941 	-0.00072386151 	0.10542436
0.0039798995 	-6.1561922e-05 	-0.0021176351 	0.034624698
0.004 	-6.1561922e-05 	-0.0021176351 	0.034624698
