0 	-0.022385721 	-0.048782884 	0.98325766
5.5555625e-05 	-0.040762202 	-0.034473974 	0.98408118
0.00011111111 	-0.042459946 	-0.027201743 	0.98434959
0.00016666667 	-0.040470665 	-0.020505914 	0.98350643
0.00022222222 	-0.037016514 	-0.013470243 	0.98146988
0.00027777778 	-0.033150104 	-0.0065653082 	0.97842271
0.00033333333 	-0.0292926 	-0.00035177003 	0.97451937
0.00038888889 	-0.025393215 	0.0049391243 	0.96996457
0.00044444444 	-0.021386279 	0.0092544612 	0.96532607
0.0005 	-0.017500283 	0.012441386 	0.96156134
0.00055555556 	-0.014161969 	0.014229155 	0.95966144
0.00061111111 	-0.011796983 	0.014312523 	0.96025925
0.00066666667 	-0.010732683 	0.012463278 	0.96350736
0.00072222222 	-0.011167195 	0.0086535959 	0.9691639
0.00077777778 	-0.013168469 	0.003223213 	0.97668056
0.00083333333 	-0.016704592 	-0.0030480767 	0.98521683
0.00088888889 	-0.021681175 	-0.0090700048 	0.99370309
0.00094444444 	-0.027829003 	-0.013656703 	1.0009978
0.001 	-0.035197406 	-0.01615045 	1.0065509
0.0010617199 	-0.043232772 	-0.015789279 	1.0094969
0.0011225874 	-0.051184803 	-0.012396278 	1.0092774
0.0011826143 	-0.058345635 	-0.0073289359 	1.0065791
0.0012418122 	-0.064384935 	-0.0018546444 	1.0022001
0.0013001926 	-0.069008585 	0.003054158 	0.99689441
0.0013577668 	-0.072161258 	0.0070527024 	0.99131751
0.0014145458 	-0.073908502 	0.010225616 	0.98591905
0.0014705407 	-0.074449671 	0.012843213 	0.98087526
0.0015257623 	-0.07404337 	0.015085738 	0.97607674
0.0015802213 	-0.072931223 	0.016971324 	0.97128471
0.0016339282 	-0.071246444 	0.018447548 	0.96640931
0.0016868934 	-0.068971757 	0.019495943 	0.96175257
0.0017391271 	-0.06596794 	0.020186655 	0.95800246
0.0017906395 	-0.062093268 	0.020642674 	0.95588262
0.0018414404 	-0.057351315 	0.02096537 	0.95568485
0.0018915398 	-0.051944834 	0.021200399 	0.95709053
0.0019409473 	-0.046207572 	0.021361778 	0.95939538
0.0019896725 	-0.040479432 	0.021447006 	0.96184722
0.0020377248 	-0.035016128 	0.021410652 	0.96382175
0.0020851134 	-0.029971485 	0.021134624 	0.96481791
0.0021318476 	-0.025419281 	0.020445246 	0.96438481
0.0021779364 	-0.021389466 	0.019146201 	0.96204367
0.0022233887 	-0.017909409 	0.017028138 	0.95724645
0.0022682133 	-0.015055806 	0.013847411 	0.94941597
0.0023124189 	-0.012955989 	0.009292328 	0.93809213
0.0023560139 	-0.011845905 	0.0030210408 	0.92323178
0.0023990069 	-0.01194326 	-0.0052517716 	0.90562798
0.0024414062 	-0.013443668 	-0.015391882 	0.88710024
0.0024832199 	-0.016455658 	-0.026685991 	0.87027254
0.0025244562 	-0.020800215 	-0.037954417 	0.8576903
0.002565123 	-0.026150458 	-0.048028203 	0.85083031
0.0026052281 	-0.032252888 	-0.056100244 	0.84968209
0.0026447794 	-0.039057199 	-0.061849709 	0.85296269
0.0026837845 	-0.046600802 	-0.065647106 	0.85857567
0.0027222509 	-0.054738885 	-0.068587114 	0.86410637
0.0027601861 	-0.062959544 	-0.071834753 	0.8674649
0.0027975974 	-0.070467833 	-0.075719245 	0.86750165
0.002834492 	-0.076493778 	-0.079643666 	0.86415277
0.0028708772 	-0.080542435 	-0.082797012 	0.85811398
0.0029067598 	-0.08243291 	-0.084723707 	0.85039061
0.0029421469 	-0.0822202 	-0.085336953 	0.84191661
0.0029770452 	-0.080112975 	-0.08471725 	0.8333377
0.0030114616 	-0.076421647 	-0.082990382 	0.82499865
0.0030454028 	-0.071517929 	-0.080292385 	0.81705454
0.0030788752 	-0.065792313 	-0.076755498 	0.80959303
0.0031118853 	-0.059613767 	-0.072497826 	0.8027144
0.0031444395 	-0.053299386 	-0.067626478 	0.79655131
0.0031765442 	-0.047095781 	-0.062259329 	0.79122867
0.0032082055 	-0.041170462 	-0.056555037 	0.78678077
0.0032394295 	-0.035619483 	-0.050728231 	0.78307051
0.0032702223 	-0.030490996 	-0.045025432 	0.77976485
0.0033005899 	-0.025818246 	-0.039666381 	0.77638291
0.0033305381 	-0.021643803 	-0.034788337 	0.77236838
0.0033600727 	-0.01801659 	-0.030446906 	0.76711096
0.0033891994 	-0.014963358 	-0.026680329 	0.75990402
0.0034179239 	-0.012457877 	-0.023573627 	0.74991815
0.0034462517 	-0.010417789 	-0.021218789 	0.73630661
0.0034741882 	-0.0087430443 	-0.019536077 	0.71847802
0.003501739 	-0.0073620307 	-0.018091572 	0.69640236
0.0035289093 	-0.0062360024 	-0.016150357 	0.67071986
0.0035557043 	-0.005318299 	-0.013042312 	0.64252784
0.0035821293 	-0.0045224321 	-0.0086091659 	0.61304436
0.0036081894 	-0.0037391136 	-0.0033756113 	0.58336759
0.0036338895 	-0.0029265372 	0.0016769519 	0.55441425
0.0036592348 	-0.0021190928 	0.0055571783 	0.52688023
0.00368423 	-0.001388707 	0.0076298171 	0.50112383
0.00370888 	-0.00081980768 	0.007768069 	0.47700217
0.0037331896 	-0.00043555591 	0.0062952809 	0.45376708
0.0037571635 	-0.00021011936 	0.0038058034 	0.43011389
0.0037808063 	-5.989837e-05 	0.00097282208 	0.40443833
0.0038041226 	0.00012445894 	-0.0016197366 	0.37518677
0.0038271169 	0.00037726646 	-0.0036020389 	0.34122879
0.0038497936 	0.00065937902 	-0.0048568766 	0.30217352
0.0038721572 	0.00088033855 	-0.0054471514 	0.25854117
0.0038942119 	0.00094128858 	-0.0054740592 	0.21168716
0.003915962 	0.00080353713 	-0.0049837684 	0.16340526
0.0039374118 	0.00052299656 	-0.0040004022 	0.11533545
0.0039585653 	0.00022002798 	-0.0026152483 	0.068453072
0.0039794267 	2.6314415e-05 	-0.00097277958 	0.022804787
0.004 	2.6314415e-05 	-0.00097277958 	0.022804787
