0 	0.0072765863 	-0.030641336 	1.0278425
5.5555556e-05 	0.020153399 	-0.020963419 	1.0261548
0.00011111111 	0.022040145 	-0.015643647 	1.0236091
0.00016666667 	0.022153791 	-0.012189762 	1.020521
0.00022222222 	0.021759725 	-0.0096552271 	1.0170617
0.00027777778 	0.021229059 	-0.0076455968 	1.0132389
0.00033333333 	0.020798841 	-0.0058872601 	1.0089598
0.00038888889 	0.020701105 	-0.0041830686 	1.0041378
0.00044444444 	0.021119871 	-0.0024996879 	0.99877875
0.0005 	0.022089673 	-0.0010460325 	0.99302361
0.00055555556 	0.023454684 	-0.00023852174 	0.9871458
0.00061111111 	0.024926799 	-0.00054441718 	0.98149477
0.00066666667 	0.026180661 	-0.0023021343 	0.97643407
0.00072222222 	0.026940318 	-0.0056316052 	0.97229286
0.00077777778 	0.026993522 	-0.010422401 	0.96934478
0.00083333333 	0.026207899 	-0.016413127 	0.9677855
0.00088888889 	0.024578454 	-0.023255769 	0.96766528
0.00094444444 	0.022167459 	-0.030509256 	0.9687871
0.001 	0.019076625 	-0.038514907 	0.97120557
0.0010617199 	0.01556101 	-0.046922313 	0.9741732
0.0011225874 	0.012661543 	-0.054913591 	0.97688554
0.0011826143 	0.01061564 	-0.062336582 	0.97894554
0.0012418122 	0.009656743 	-0.069133277 	0.9801313
0.0013001926 	0.0099758166 	-0.07531168 	0.98026239
0.0013577668 	0.011605738 	-0.080906718 	0.9792709
0.0014145458 	0.014418091 	-0.085906969 	0.97736079
0.0014705407 	0.018125617 	-0.090204001 	0.97499569
0.0015257623 	0.022342828 	-0.093630679 	0.97273424
0.0015802213 	0.026683919 	-0.096053728 	0.97104239
0.0016339282 	0.030828208 	-0.097440612 	0.97020053
0.0016868934 	0.034540281 	-0.097872921 	0.97028962
0.0017391271 	0.037668796 	-0.097531596 	0.9712277
0.0017906395 	0.040114685 	-0.096656621 	0.97281632
0.0018414404 	0.041817776 	-0.095513306 	0.97479178
0.0018915398 	0.042752223 	-0.094359691 	0.97686586
0.0019409473 	0.042911588 	-0.093418374 	0.97877031
0.0019896725 	0.042306188 	-0.092872537 	0.98031113
0.0020377248 	0.040962858 	-0.09287461 	0.9814306
0.0020851134 	0.038931774 	-0.09354852 	0.98223375
0.0021318476 	0.036305269 	-0.094947926 	0.98292239
0.0021779364 	0.033236196 	-0.096950387 	0.98363657
0.0022233887 	0.029921959 	-0.099124114 	0.98428655
0.0022682133 	0.026508355 	-0.10062785 	0.98442079
0.0023124189 	0.022913643 	-0.10015147 	0.98302899
0.0023560139 	0.018653589 	-0.0959522 	0.97838667
0.0023990069 	0.012849298 	-0.086389351 	0.96863035
0.0024414062 	0.0047080236 	-0.071291541 	0.95321565
0.0024832199 	-0.0057226124 	-0.052845573 	0.93362469
0.0025244562 	-0.016998286 	-0.034732136 	0.91237512
0.002565123 	-0.027114071 	-0.02020294 	0.89183772
0.0026052281 	-0.034859369 	-0.010736949 	0.87362453
0.0026447794 	-0.039957594 	-0.0058495497 	0.85844138
0.0026837845 	-0.042651963 	-0.0041348255 	0.84629851
0.0027222509 	-0.04334779 	-0.004212226 	0.83696165
0.0027601861 	-0.042480527 	-0.0050587708 	0.83021941
0.0027975974 	-0.04049498 	-0.0059277258 	0.82590555
0.002834492 	-0.037800542 	-0.0063098945 	0.8238685
0.0028708772 	-0.034726393 	-0.0059293055 	0.82395222
0.0029067598 	-0.031491407 	-0.0047333783 	0.82596055
0.0029421469 	-0.02821373 	-0.0028462407 	0.82960276
0.0029770452 	-0.024939656 	-0.00051007919 	0.83445333
0.0030114616 	-0.021672318 	0.0019767208 	0.83993503
0.0030454028 	-0.018422966 	0.0043214284 	0.84533412
0.0030788752 	-0.015234046 	0.0062811364 	0.84986068
0.0031118853 	-0.012207389 	0.0076807089 	0.85269506
0.0031444395 	-0.0094849463 	0.0084507689 	0.8530194
0.0031765442 	-0.0071463404 	0.0086284136 	0.8500332
0.0032082055 	-0.0051927739 	0.0083627034 	0.84301484
0.0032394295 	-0.0035830685 	0.0079313141 	0.83148127
0.0032702223 	-0.0022495705 	0.0077653564 	0.81544177
0.0033005899 	-0.0011513255 	0.0083796107 	0.79558798
0.0033305381 	-0.00030005583 	0.010245186 	0.77323472
0.0033600727 	0.00028038311 	0.013599783 	0.74993426
0.0033891994 	0.00056098197 	0.018341364 	0.72693462
0.0034179239 	0.00053318772 	0.02403069 	0.7048501
0.0034462517 	0.00019837186 	0.030011551 	0.68361366
0.0034741882 	-0.00046146704 	0.035587444 	0.66265613
0.003501739 	-0.0014576935 	0.040178272 	0.64119791
0.0035289093 	-0.0027618197 	0.043407374 	0.61856198
0.0035557043 	-0.0042795367 	0.045104623 	0.59444259
0.0035821293 	-0.0058523406 	0.045249242 	0.56906009
0.0036081894 	-0.0072918069 	0.043903641 	0.54311523
0.0036338895 	-0.0084340829 	0.04118595 	0.51751086
0.0036592348 	-0.0091798336 	0.037288064 	0.49294849
0.00368423 	-0.0095046988 	0.03250015 	0.46960828
0.00370888 	-0.0094435389 	0.027208659 	0.447068
0.0037331896 	-0.0090620767 	0.021845803 	0.42446122
0.0037571635 	-0.0084310183 	0.016822168 	0.40075684
0.0037808063 	-0.0076106969 	0.012467805 	0.3750267
0.0038041226 	-0.0066489653 	0.0089966314 	0.34661878
0.0038271169 	-0.0056012302 	0.0064951792 	0.31520687
0.0038497936 	-0.0045205152 	0.0049177128 	0.28077723
0.0038721572 	-0.0034488435 	0.0041025066 	0.24351086
0.0038942119 	-0.0024341691 	0.0037871 	0.20368487
0.003915962 	-0.0015292297 	0.0036369764 	0.16159111
0.0039374118 	-0.0007894358 	0.0032912681 	0.11749262
0.0039585653 	-0.00026887072 	0.0024384723 	0.071627823
0.0039794267 	-1.7964342e-05 	0.00094464752 	0.024286137
0.004 	3.2612293e-06 	0.0018418108 	0.023449789
