0 	0.020539692 	-0.069806682 	1.0169886
2.0100503e-05 	0.020539692 	-0.069806682 	1.0169886
4.0201005e-05 	0.020539692 	-0.069806682 	1.0169886
6.0301508e-05 	-0.012980701 	-0.071661436 	1.0172414
8.040201e-05 	-0.012980701 	-0.071661436 	1.0172414
0.00010050251 	-0.012980701 	-0.071661436 	1.0172414
0.00012060302 	-0.021866066 	-0.068490798 	1.017673
0.00014070352 	-0.021866066 	-0.068490798 	1.017673
0.00016080402 	-0.021866066 	-0.068490798 	1.017673
0.00018090452 	-0.025729012 	-0.065641214 	1.0185591
0.00020100503 	-0.025729012 	-0.065641214 	1.0185591
0.00022110553 	-0.025729012 	-0.065641214 	1.0185591
0.00024120603 	-0.027931511 	-0.063146315 	1.0200628
0.00026130653 	-0.027931511 	-0.063146315 	1.0200628
0.00028140704 	-0.029410773 	-0.061038739 	1.0221694
0.00030150754 	-0.029410773 	-0.061038739 	1.0221694
0.00032160804 	-0.029410773 	-0.061038739 	1.0221694
0.00034170854 	-0.030437288 	-0.059317283 	1.0246854
0.00036180905 	-0.030437288 	-0.059317283 	1.0246854
0.00038190955 	-0.030437288 	-0.059317283 	1.0246854
0.00040201005 	-0.031045361 	-0.05791391 	1.027294
0.00042211055 	-0.031045361 	-0.05791391 	1.027294
0.00044221106 	-0.031045361 	-0.05791391 	1.027294
0.00046231156 	-0.031181753 	-0.05671546 	1.0296366
0.00048241206 	-0.031181753 	-0.05671546 	1.0296366
0.00050251256 	-0.030785058 	-0.055588917 	1.0313909
0.00052261307 	-0.030785058 	-0.055588917 	1.0313909
0.00054271357 	-0.030785058 	-0.055588917 	1.0313909
0.00056281407 	-0.029820048 	-0.054419818 	1.0323342
0.00058291457 	-0.029820048 	-0.054419818 	1.0323342
0.00060301508 	-0.029820048 	-0.054419818 	1.0323342
0.00062311558 	-0.028298486 	-0.053133555 	1.032371
0.00064321608 	-0.028482525 	-0.047359287 	1.0334742
0.00066331658 	-0.028482525 	-0.047359287 	1.0334742
0.00068341709 	-0.026164064 	-0.046615546 	1.0328672
0.00070351759 	-0.026164064 	-0.046615546 	1.0328672
0.00072361809 	-0.023475032 	-0.045760986 	1.0314998
0.00074371859 	-0.023475032 	-0.045760986 	1.0314998
0.0007638191 	-0.023475032 	-0.045760986 	1.0314998
0.0007839196 	-0.020524917 	-0.044859488 	1.029583
0.0008040201 	-0.020524917 	-0.044859488 	1.029583
0.0008241206 	-0.020524917 	-0.044859488 	1.029583
0.00084422111 	-0.017473959 	-0.044004643 	1.0273519
0.00086432161 	-0.017473959 	-0.044004643 	1.0273519
0.00088442211 	-0.017473959 	-0.044004643 	1.0273519
0.00090452261 	-0.014522491 	-0.043266538 	1.025023
0.00092462312 	-0.014522491 	-0.043266538 	1.025023
0.00094472362 	-0.011889001 	-0.042643386 	1.0227503
0.00096482412 	-0.011889001 	-0.042643386 	1.0227503
0.00098492462 	-0.011889001 	-0.042643386 	1.0227503
0.0010050251 	-0.011944246 	-0.044113908 	1.0185491
0.0010251256 	-0.011944246 	-0.044113908 	1.0185491
0.0010452261 	-0.011944246 	-0.044113908 	1.0185491
0.0010653266 	-0.010129105 	-0.042052269 	1.0156366
0.0010854271 	-0.010129105 	-0.042052269 	1.0156366
0.0011055276 	-0.010129105 	-0.042052269 	1.0156366
0.0011256281 	-0.0080227947 	-0.03849621 	1.0118179
0.0011457286 	-0.0080227947 	-0.03849621 	1.0118179
0.0011658291 	-0.0080227947 	-0.03849621 	1.0118179
0.0011859296 	-0.0051089148 	-0.032637837 	1.0065429
0.0012060302 	-0.0051089148 	-0.032637837 	1.0065429
0.0012261307 	-0.0051089148 	-0.032637837 	1.0065429
0.0012462312 	-0.0011005816 	-0.024148049 	0.99964402
0.0012663317 	-0.0011005816 	-0.024148049 	0.99964402
0.0012864322 	-0.0011005816 	-0.024148049 	0.99964402
0.0013065327 	0.0037171457 	-0.01348281 	0.99149753
0.0013266332 	0.0037171457 	-0.01348281 	0.99149753
0.0013467337 	0.0037171457 	-0.01348281 	0.99149753
0.0013668342 	0.0084163106 	-0.0020737515 	0.98297986
0.0013869347 	0.0084163106 	-0.0020737515 	0.98297986
0.0014070352 	0.0084163106 	-0.0020737515 	0.98297986
0.0014271357 	0.011756211 	0.0080563032 	0.9751003
0.0014472362 	0.011756211 	0.0080563032 	0.9751003
0.0014673367 	0.011756211 	0.0080563032 	0.9751003
0.0014874372 	0.012693206 	0.015126029 	0.96882335
0.0015075377 	0.012693206 	0.015126029 	0.96882335
0.0015276382 	0.0107072 	0.018564433 	0.96503928
0.0015477387 	0.0107072 	0.018564433 	0.96503928
0.0015678392 	0.0107072 	0.018564433 	0.96503928
0.0015879397 	0.0060862754 	0.019303053 	0.96429778
0.0016080402 	0.0060862754 	0.019303053 	0.96429778
0.0016281407 	0.0060862754 	0.019303053 	0.96429778
0.0016482412 	-8.9865705e-05 	0.019081041 	0.9661061
0.0016683417 	-8.9865705e-05 	0.019081041 	0.9661061
0.0016884422 	-0.0064506061 	0.019341465 	0.96863072
0.0017085427 	-0.0064506061 	0.019341465 	0.96863072
0.0017286432 	-0.0064506061 	0.019341465 	0.96863072
0.0017487437 	-0.01199757 	0.020615402 	0.9696867
0.0017688442 	-0.01199757 	0.020615402 	0.9696867
0.0017889447 	-0.01199757 	0.020615402 	0.9696867
0.0018090452 	-0.016353215 	0.022768567 	0.96831634
0.0018291457 	-0.016353215 	0.022768567 	0.96831634
0.0018492462 	-0.019598614 	0.025436312 	0.96538977
0.0018693467 	-0.019598614 	0.025436312 	0.96538977
0.0018894472 	-0.019598614 	0.025436312 	0.96538977
0.0019095477 	-0.022024853 	0.02808463 	0.96284051
0.0019296482 	-0.022024853 	0.02808463 	0.96284051
0.0019497487 	-0.023968567 	0.029985178 	0.96240817
0.0019698492 	-0.023968567 	0.029985178 	0.96240817
0.0019899497 	-0.025663986 	0.030434458 	0.96480836
0.0020100503 	-0.025663986 	0.030434458 	0.96480836
0.0020301508 	-0.025663986 	0.030434458 	0.96480836
0.0020502513 	-0.027167504 	0.029082368 	0.96957582
0.0020703518 	-0.027167504 	0.029082368 	0.96957582
0.0020904523 	-0.0283924 	0.02605629 	0.97535763
0.0021105528 	-0.0283924 	0.02605629 	0.97535763
0.0021306533 	-0.0283924 	0.02605629 	0.97535763
0.0021507538 	-0.029250933 	0.021857774 	0.98037004
0.0021708543 	-0.029250933 	0.021857774 	0.98037004
0.0021909548 	-0.029722497 	0.017140392 	0.98291925
0.0022110553 	-0.029722497 	0.017140392 	0.98291925
0.0022311558 	-0.029768336 	0.012532808 	0.98188901
0.0022512563 	-0.029768336 	0.012532808 	0.98188901
0.0022713568 	-0.029346389 	0.008468885 	0.97701766
0.0022914573 	-0.029346389 	0.008468885 	0.97701766
0.0023115578 	-0.029346389 	0.008468885 	0.97701766
0.0023316583 	-0.028468464 	0.0051350578 	0.96881397
0.0023517588 	-0.028468464 	0.0051350578 	0.96881397
0.0023718593 	-0.027166966 	0.0025254006 	0.95822042
0.0023919598 	-0.027166966 	0.0025254006 	0.95822042
0.0024120603 	-0.025527703 	0.00053606777 	0.94628359
0.0024321608 	-0.025527703 	0.00053606777 	0.94628359
0.0024522613 	-0.023684096 	-0.00095980044 	0.93390827
0.0024723618 	-0.023684096 	-0.00095980044 	0.93390827
0.0024924623 	-0.021726145 	-0.0020709155 	0.92176528
0.0025125628 	-0.021726145 	-0.0020709155 	0.92176528
0.0025326633 	-0.019699736 	-0.0029184878 	0.91028559
0.0025527638 	-0.019699736 	-0.0029184878 	0.91028559
0.0025728643 	-0.017627956 	-0.0036605637 	0.89970237
0.0025929648 	-0.017627956 	-0.0036605637 	0.89970237
0.0026130653 	-0.015502739 	-0.0045163648 	0.89009557
0.0026331658 	-0.015502739 	-0.0045163648 	0.89009557
0.0026532663 	-0.013311051 	-0.0057657554 	0.88143531
0.0026733668 	-0.013311051 	-0.0057657554 	0.88143531
0.0026934673 	-0.0110728 	-0.0077389862 	0.8736315
0.0027135678 	-0.0110728 	-0.0077389862 	0.8736315
0.0027336683 	-0.0088070809 	-0.010775837 	0.86657453
0.0027537688 	-0.0088070809 	-0.010775837 	0.86657453
0.0027738693 	-0.0065305702 	-0.01515175 	0.86019205
0.0027939698 	-0.0065305702 	-0.01515175 	0.86019205
0.0028140704 	-0.0042628844 	-0.021018255 	0.85445476
0.0028341709 	-0.0042628844 	-0.021018255 	0.85445476
0.0028542714 	-0.001992175 	-0.028352267 	0.84932494
0.0028743719 	0.00037258499 	-0.036935652 	0.84462844
0.0028944724 	0.00037258499 	-0.036935652 	0.84462844
0.0029145729 	0.0029401689 	-0.046340089 	0.83994206
0.0029346734 	0.0029401689 	-0.046340089 	0.83994206
0.0029547739 	0.0057981025 	-0.055896081 	0.83450386
0.0029748744 	0.0057981025 	-0.055896081 	0.83450386
0.0029949749 	0.0089888575 	-0.064686564 	0.82727247
0.0030150754 	0.012373766 	-0.071638251 	0.81718322
0.0030351759 	0.012373766 	-0.071638251 	0.81718322
0.0030552764 	0.015605241 	-0.075761697 	0.80351459
0.0030753769 	0.015605241 	-0.075761697 	0.80351459
0.0030954774 	0.018233575 	-0.076418807 	0.78618743
0.0031155779 	0.019824992 	-0.0734695 	0.76602799
0.0031356784 	0.019824992 	-0.0734695 	0.76602799
0.0031557789 	0.019915354 	-0.067385413 	0.74497819
0.0031758794 	0.019915354 	-0.067385413 	0.74497819
0.0031959799 	0.017981833 	-0.059330342 	0.72558674
0.0032160804 	0.013750441 	-0.050946916 	0.70963538
0.0032361809 	0.013750441 	-0.050946916 	0.70963538
0.0032562814 	0.0076043378 	-0.044057403 	0.69659729
0.0032763819 	0.000593854 	-0.040471698 	0.68251301
0.0032964824 	0.000593854 	-0.040471698 	0.68251301
0.0033165829 	-0.0058730103 	-0.041232133 	0.66200137
0.0033366834 	-0.011276888 	-0.044719808 	0.63417074
0.0033567839 	-0.011276888 	-0.044719808 	0.63417074
0.0033768844 	-0.016530549 	-0.045807636 	0.60696551
0.0033969849 	-0.022718604 	-0.039035683 	0.5912013
0.0034170854 	-0.022718604 	-0.039035683 	0.5912013
0.0034371859 	-0.029768293 	-0.023388819 	0.5892455
0.0034572864 	-0.036464811 	-0.0030639502 	0.59236895
0.0034773869 	-0.041554839 	0.016143451 	0.58846264
0.0034974874 	-0.041554839 	0.016143451 	0.58846264
0.0035175879 	-0.044355806 	0.030300677 	0.57181303
0.0035376884 	-0.045210458 	0.038553848 	0.54468502
0.0035577889 	-0.044807306 	0.041901448 	0.51291011
0.0035778894 	-0.044807306 	0.041901448 	0.51291011
0.0035979899 	-0.043694112 	0.04197546 	0.48113452
0.0036180905 	-0.042122164 	0.04020754 	0.45135968
0.003638191 	-0.040177705 	0.037545338 	0.42364217
0.0036582915 	-0.040177705 	0.037545338 	0.42364217
0.003678392 	-0.037879078 	0.034509791 	0.39718966
0.0036984925 	-0.035233517 	0.031341053 	0.37110534
0.003718593 	-0.032253438 	0.028131111 	0.34473972
0.0037386935 	-0.028954567 	0.024896005 	0.3177904
0.003758794 	-0.025363353 	0.021635603 	0.2902805
0.0037788945 	-0.025363353 	0.021635603 	0.2902805
0.003798995 	-0.021555019 	0.018372205 	0.26246492
0.0038190955 	-0.017675039 	0.015157868 	0.23469253
0.003839196 	-0.013910873 	0.012091973 	0.20725239
0.0038592965 	-0.010442856 	0.0093045976 	0.18022799
0.003879397 	-0.0074040064 	0.0069150547 	0.15345531
0.0038994975 	-0.004868026 	0.0049907803 	0.12660071
0.003919598 	-0.0028625323 	0.0035290384 	0.099299205
0.0039396985 	-0.0013920624 	0.0024465352 	0.071306933
0.003959799 	-0.00045114172 	0.001579437 	0.042673295
0.0039798995 	-3.5014173e-05 	0.00067067871 	0.013937118
0.004 	-3.5014173e-05 	0.00067067871 	0.013937118
