0 	-0.0062837221 	-0.044186966 	1.0640267
2.0100503e-05 	0.042636029 	-0.0078480325 	1.0644753
4.0201005e-05 	0.042636029 	-0.0078480325 	1.0644753
6.0301508e-05 	0.040262252 	0.0095608113 	1.0648264
8.040201e-05 	0.040262252 	0.0095608113 	1.0648264
0.00010050251 	0.040262252 	0.0095608113 	1.0648264
0.00012060302 	0.037317517 	0.011449294 	1.0649563
0.00014070352 	0.037317517 	0.011449294 	1.0649563
0.00016080402 	0.037317517 	0.011449294 	1.0649563
0.00018090452 	0.035280418 	0.010077857 	1.0647129
0.00020100503 	0.035280418 	0.010077857 	1.0647129
0.00022110553 	0.035280418 	0.010077857 	1.0647129
0.00024120603 	0.033933847 	0.0075186948 	1.0639635
0.00026130653 	0.033933847 	0.0075186948 	1.0639635
0.00028140704 	0.033265146 	0.0045092931 	1.0626589
0.00030150754 	0.033265146 	0.0045092931 	1.0626589
0.00032160804 	0.033265146 	0.0045092931 	1.0626589
0.00034170854 	0.033260792 	0.0014902269 	1.060866
0.00036180905 	0.033260792 	0.0014902269 	1.060866
0.00038190955 	0.033260792 	0.0014902269 	1.060866
0.00040201005 	0.03385212 	-0.0012139538 	1.0587425
0.00042211055 	0.03385212 	-0.0012139538 	1.0587425
0.00044221106 	0.03385212 	-0.0012139538 	1.0587425
0.00046231156 	0.034933601 	-0.00338658 	1.0564743
0.00048241206 	0.034933601 	-0.00338658 	1.0564743
0.00050251256 	0.036397436 	-0.0049246779 	1.0542111
0.00052261307 	0.036397436 	-0.0049246779 	1.0542111
0.00054271357 	0.036397436 	-0.0049246779 	1.0542111
0.00056281407 	0.038157313 	-0.005828625 	1.0520252
0.00058291457 	0.038157313 	-0.005828625 	1.0520252
0.00060301508 	0.038157313 	-0.005828625 	1.0520252
0.00062311558 	0.040154317 	-0.0061665397 	1.0498964
0.00064321608 	0.040154317 	-0.0061665397 	1.0498964
0.00066331658 	0.040154317 	-0.0061665397 	1.0498964
0.00068341709 	0.042352928 	-0.0060316318 	1.0477259
0.00070351759 	0.042352928 	-0.0060316318 	1.0477259
0.00072361809 	0.044722381 	-0.0055112808 	1.045383
0.00074371859 	0.044722381 	-0.0055112808 	1.045383
0.0007638191 	0.044722381 	-0.0055112808 	1.045383
0.0007839196 	0.047260365 	-0.0046534779 	1.0427795
0.0008040201 	0.047260365 	-0.0046534779 	1.0427795
0.0008241206 	0.047260365 	-0.0046534779 	1.0427795
0.00084422111 	0.049948485 	-0.0034915223 	1.0399295
0.00086432161 	0.049948485 	-0.0034915223 	1.0399295
0.00088442211 	0.049948485 	-0.0034915223 	1.0399295
0.00090452261 	0.052846921 	-0.0019713776 	1.0370006
0.00092462312 	0.052846921 	-0.0019713776 	1.0370006
0.00094472362 	0.055956107 	-0.00011399515 	1.0341809
0.00096482412 	0.055956107 	-0.00011399515 	1.0341809
0.00098492462 	0.055956107 	-0.00011399515 	1.0341809
0.0010050251 	0.060874365 	0.0086725855 	1.0301357
0.0010251256 	0.060874365 	0.0086725855 	1.0301357
0.0010452261 	0.060874365 	0.0086725855 	1.0301357
0.0010653266 	0.065128646 	0.012011275 	1.0280011
0.0010854271 	0.065128646 	0.012011275 	1.0280011
0.0011055276 	0.065128646 	0.012011275 	1.0280011
0.0011256281 	0.069975065 	0.015299261 	1.0262066
0.0011457286 	0.069975065 	0.015299261 	1.0262066
0.0011658291 	0.069975065 	0.015299261 	1.0262066
0.0011859296 	0.075547944 	0.018254913 	1.024047
0.0012060302 	0.075547944 	0.018254913 	1.024047
0.0012261307 	0.075547944 	0.018254913 	1.024047
0.0012462312 	0.081772739 	0.020711365 	1.0209564
0.0012663317 	0.081772739 	0.020711365 	1.0209564
0.0012864322 	0.081772739 	0.020711365 	1.0209564
0.0013065327 	0.088349066 	0.022636144 	1.0167485
0.0013266332 	0.088349066 	0.022636144 	1.0167485
0.0013467337 	0.088349066 	0.022636144 	1.0167485
0.0013668342 	0.094830712 	0.024050221 	1.0116324
0.0013869347 	0.094830712 	0.024050221 	1.0116324
0.0014070352 	0.094830712 	0.024050221 	1.0116324
0.0014271357 	0.10076208 	0.025046365 	1.0061155
0.0014472362 	0.10076208 	0.025046365 	1.0061155
0.0014673367 	0.10076208 	0.025046365 	1.0061155
0.0014874372 	0.10575769 	0.025731156 	1.0008382
0.0015075377 	0.10575769 	0.025731156 	1.0008382
0.0015276382 	0.1096568 	0.026225837 	0.99644788
0.0015477387 	0.1096568 	0.026225837 	0.99644788
0.0015678392 	0.1096568 	0.026225837 	0.99644788
0.0015879397 	0.11252958 	0.026590382 	0.99338799
0.0016080402 	0.11252958 	0.026590382 	0.99338799
0.0016281407 	0.11252958 	0.026590382 	0.99338799
0.0016482412 	0.11461081 	0.026736699 	0.99173352
0.0016683417 	0.11461081 	0.026736699 	0.99173352
0.0016884422 	0.11625008 	0.026452048 	0.99120633
0.0017085427 	0.11625008 	0.026452048 	0.99120633
0.0017286432 	0.11625008 	0.026452048 	0.99120633
0.0017487437 	0.1178244 	0.025512328 	0.99137484
0.0017688442 	0.1178244 	0.025512328 	0.99137484
0.0017889447 	0.1178244 	0.025512328 	0.99137484
0.0018090452 	0.11962591 	0.023839302 	0.99186088
0.0018291457 	0.11962591 	0.023839302 	0.99186088
0.0018492462 	0.12180696 	0.021538944 	0.99246323
0.0018693467 	0.12180696 	0.021538944 	0.99246323
0.0018894472 	0.12180696 	0.021538944 	0.99246323
0.0019095477 	0.12439832 	0.018830429 	0.99314578
0.0019296482 	0.12439832 	0.018830429 	0.99314578
0.0019497487 	0.12732731 	0.015971934 	0.99397447
0.0019698492 	0.12732731 	0.015971934 	0.99397447
0.0019899497 	0.12732731 	0.015971934 	0.99397447
0.0020100503 	0.13045404 	0.013179853 	0.99502714
0.0020301508 	0.13045404 	0.013179853 	0.99502714
0.0020502513 	0.13362045 	0.010613291 	0.99632694
0.0020703518 	0.13362045 	0.010613291 	0.99632694
0.0020904523 	0.13667972 	0.0083770879 	0.99781038
0.0021105528 	0.13667972 	0.0083770879 	0.99781038
0.0021306533 	0.13667972 	0.0083770879 	0.99781038
0.0021507538 	0.13951684 	0.0065223992 	0.99931468
0.0021708543 	0.13951684 	0.0065223992 	0.99931468
0.0021909548 	0.14201687 	0.0050807833 	1.0006022
0.0022110553 	0.14201687 	0.0050807833 	1.0006022
0.0022311558 	0.14410796 	0.0040557572 	1.0014003
0.0022512563 	0.14410796 	0.0040557572 	1.0014003
0.0022713568 	0.14574701 	0.0034263344 	1.0014436
0.0022914573 	0.14574701 	0.0034263344 	1.0014436
0.0023115578 	0.14574701 	0.0034263344 	1.0014436
0.0023316583 	0.14687183 	0.0031679708 	1.0005047
0.0023517588 	0.14687183 	0.0031679708 	1.0005047
0.0023718593 	0.14742336 	0.0032305105 	0.99842206
0.0023919598 	0.14742336 	0.0032305105 	0.99842206
0.0024120603 	0.14733345 	0.0035551509 	0.99512894
0.0024321608 	0.14733345 	0.0035551509 	0.99512894
0.0024522613 	0.14654186 	0.0040693364 	0.99066076
0.0024723618 	0.14654186 	0.0040693364 	0.99066076
0.0024924623 	0.14498248 	0.0046833555 	0.98514919
0.0025125628 	0.14498248 	0.0046833555 	0.98514919
0.0025326633 	0.14259277 	0.0053040497 	0.97881755
0.0025527638 	0.14259277 	0.0053040497 	0.97881755
0.0025728643 	0.13933303 	0.0058410393 	0.97196188
0.0025929648 	0.13933303 	0.0058410393 	0.97196188
0.0026130653 	0.13517434 	0.0062105994 	0.96492603
0.0026331658 	0.13517434 	0.0062105994 	0.96492603
0.0026532663 	0.1301026 	0.0063373582 	0.95807115
0.0026733668 	0.1301026 	0.0063373582 	0.95807115
0.0026934673 	0.1241473 	0.0061461679 	0.95171951
0.0027135678 	0.1241473 	0.0061461679 	0.95171951
0.0027336683 	0.1173956 	0.0055412258 	0.94605361
0.0027537688 	0.1173956 	0.0055412258 	0.94605361
0.0027738693 	0.11000209 	0.0044162303 	0.94097765
0.0027939698 	0.11000209 	0.0044162303 	0.94097765
0.0028140704 	0.10223065 	0.0027168558 	0.93600997
0.0028341709 	0.10223065 	0.0027168558 	0.93600997
0.0028542714 	0.094452399 	0.00060220933 	0.93026321
0.0028743719 	0.087086361 	-0.0014577514 	0.92254504
0.0028944724 	0.087086361 	-0.0014577514 	0.92254504
0.0029145729 	0.080521188 	-0.002786268 	0.91161115
0.0029346734 	0.080521188 	-0.002786268 	0.91161115
0.0029547739 	0.075001843 	-0.0027227344 	0.89659666
0.0029748744 	0.075001843 	-0.0027227344 	0.89659666
0.0029949749 	0.070553225 	-0.00083919392 	0.87746671
0.0030150754 	0.067032678 	0.0029078981 	0.85520167
0.0030351759 	0.067032678 	0.0029078981 	0.85520167
0.0030552764 	0.064263375 	0.0080854064 	0.83152395
0.0030753769 	0.064263375 	0.0080854064 	0.83152395
0.0030954774 	0.062106848 	0.01383302 	0.8083345
0.0031155779 	0.060449866 	0.019080782 	0.78724007
0.0031356784 	0.060449866 	0.019080782 	0.78724007
0.0031557789 	0.0591553 	0.022851487 	0.76937696
0.0031758794 	0.0591553 	0.022851487 	0.76937696
0.0031959799 	0.058044345 	0.024494262 	0.75545414
0.0032160804 	0.056920657 	0.023764932 	0.745861
0.0032361809 	0.056920657 	0.023764932 	0.745861
0.0032562814 	0.055611706 	0.020762315 	0.74073348
0.0032763819 	0.054011467 	0.01578438 	0.73997364
0.0032964824 	0.054011467 	0.01578438 	0.73997364
0.0033165829 	0.052098754 	0.0091668218 	0.74325983
0.0033366834 	0.049932246 	0.0011835777 	0.7500476
0.0033567839 	0.049932246 	0.0011835777 	0.7500476
0.0033768844 	0.047637393 	-0.0079918364 	0.75955694
0.0033969849 	0.045389671 	-0.018255169 	0.77072691
0.0034170854 	0.045389671 	-0.018255169 	0.77072691
0.0034371859 	0.043398015 	-0.029488784 	0.78215069
0.0034572864 	0.041873556 	-0.041461107 	0.792057
0.0034773869 	0.040972827 	-0.053727518 	0.79846428
0.0034974874 	0.040972827 	-0.053727518 	0.79846428
0.0035175879 	0.040723755 	-0.065580214 	0.79959421
0.0035376884 	0.040965416 	-0.076094548 	0.79443863
0.0035577889 	0.041355878 	-0.084284437 	0.78317278
0.0035778894 	0.041355878 	-0.084284437 	0.78317278
0.0035979899 	0.041460851 	-0.089287733 	0.7671529
0.0036180905 	0.040868076 	-0.090483951 	0.74851696
0.003638191 	0.039267253 	-0.087562671 	0.72956718
0.0036582915 	0.039267253 	-0.087562671 	0.72956718
0.003678392 	0.03649635 	-0.08061519 	0.71206044
0.0036984925 	0.032589988 	-0.070224054 	0.69645445
0.003718593 	0.027826297 	-0.057461344 	0.6812342
0.0037386935 	0.022710861 	-0.043737866 	0.6627645
0.003758794 	0.017846161 	-0.030496675 	0.63628283
0.0037788945 	0.017846161 	-0.030496675 	0.63628283
0.003798995 	0.013712651 	-0.018850584 	0.59797703
0.0038190955 	0.010503548 	-0.0093818297 	0.54693158
0.003839196 	0.0081004271 	-0.002201601 	0.48542719
0.0038592965 	0.0062528847 	0.0028093581 	0.41765195
0.003879397 	0.0047431676 	0.0058643657 	0.34777225
0.0038994975 	0.0034343288 	0.0072501818 	0.27871866
0.003919598 	0.0022805892 	0.0072872605 	0.21199379
0.0039396985 	0.0012929283 	0.0062428131 	0.1480574
0.003959799 	0.00052761014 	0.0042840867 	0.086832531
0.0039798995 	6.9687363e-05 	0.001564549 	0.02815051
0.004 	6.9687363e-05 	0.001564549 	0.02815051
