0 	0.015760225 	0.038979988 	2.0756644
2.0100503e-05 	0.039538269 	-0.015645354 	2.073573
4.0201005e-05 	0.039538269 	-0.015645354 	2.073573
6.0301508e-05 	0.028708878 	-0.031350895 	2.0718267
8.040201e-05 	0.028708878 	-0.031350895 	2.0718267
0.00010050251 	0.028708878 	-0.031350895 	2.0718267
0.00012060302 	0.0248449 	-0.033900687 	2.0704836
0.00014070352 	0.0248449 	-0.033900687 	2.0704836
0.00016080402 	0.0248449 	-0.033900687 	2.0704836
0.00018090452 	0.023117931 	-0.033988199 	2.0695702
0.00020100503 	0.023117931 	-0.033988199 	2.0695702
0.00022110553 	0.023117931 	-0.033988199 	2.0695702
0.00024120603 	0.022192389 	-0.032987461 	2.0690955
0.00026130653 	0.022192389 	-0.032987461 	2.0690955
0.00028140704 	0.021625249 	-0.031254848 	2.0690633
0.00030150754 	0.021625249 	-0.031254848 	2.0690633
0.00032160804 	0.021625249 	-0.031254848 	2.0690633
0.00034170854 	0.021218461 	-0.028918375 	2.0694814
0.00036180905 	0.021218461 	-0.028918375 	2.0694814
0.00038190955 	0.021218461 	-0.028918375 	2.0694814
0.00040201005 	0.020861569 	-0.026034693 	2.0703618
0.00042211055 	0.020861569 	-0.026034693 	2.0703618
0.00044221106 	0.020861569 	-0.026034693 	2.0703618
0.00046231156 	0.020483029 	-0.022641022 	2.0717077
0.00048241206 	0.020483029 	-0.022641022 	2.0717077
0.00050251256 	0.020034149 	-0.018787406 	2.0735035
0.00052261307 	0.020034149 	-0.018787406 	2.0735035
0.00054271357 	0.020034149 	-0.018787406 	2.0735035
0.00056281407 	0.019483551 	-0.014555874 	2.0757025
0.00058291457 	0.019483551 	-0.014555874 	2.0757025
0.00060301508 	0.019483551 	-0.014555874 	2.0757025
0.00062311558 	0.018813502 	-0.010071354 	2.0782224
0.00064321608 	0.018813502 	-0.010071354 	2.0782224
0.00066331658 	0.018813502 	-0.010071354 	2.0782224
0.00068341709 	0.018020675 	-0.0055003321 	2.0809503
0.00070351759 	0.018020675 	-0.0055003321 	2.0809503
0.00072361809 	0.015866988 	-0.0027694979 	2.0792276
0.00074371859 	0.015866988 	-0.0027694979 	2.0792276
0.0007638191 	0.015866988 	-0.0027694979 	2.0792276
0.0007839196 	0.015194192 	0.0016781025 	2.0822714
0.0008040201 	0.015194192 	0.0016781025 	2.0822714
0.0008241206 	0.015194192 	0.0016781025 	2.0822714
0.00084422111 	0.014432637 	0.0056531184 	2.0851081
0.00086432161 	0.014432637 	0.0056531184 	2.0851081
0.00088442211 	0.014432637 	0.0056531184 	2.0851081
0.00090452261 	0.013626307 	0.0090374804 	2.0876804
0.00092462312 	0.013626307 	0.0090374804 	2.0876804
0.00094472362 	0.012863358 	0.011751924 	2.0900193
0.00096482412 	0.012863358 	0.011751924 	2.0900193
0.00098492462 	0.012863358 	0.011751924 	2.0900193
0.0010050251 	0.012397718 	0.014215105 	2.0959999
0.0010251256 	0.012397718 	0.014215105 	2.0959999
0.0010452261 	0.012397718 	0.014215105 	2.0959999
0.0010653266 	0.011750881 	0.016064965 	2.0983788
0.0010854271 	0.011750881 	0.016064965 	2.0983788
0.0011055276 	0.011750881 	0.016064965 	2.0983788
0.0011256281 	0.011170507 	0.018354058 	2.0964599
0.0011457286 	0.011170507 	0.018354058 	2.0964599
0.0011658291 	0.011170507 	0.018354058 	2.0964599
0.0011859296 	0.011227951 	0.020967098 	2.097372
0.0012060302 	0.01154412 	0.020822147 	2.1013989
0.0012261307 	0.01154412 	0.020822147 	2.1013989
0.0012462312 	0.012057981 	0.024258759 	2.1003417
0.0012663317 	0.012057981 	0.024258759 	2.1003417
0.0012864322 	0.012057981 	0.024258759 	2.1003417
0.0013065327 	0.012882836 	0.028154566 	2.0964611
0.0013266332 	0.012882836 	0.028154566 	2.0964611
0.0013467337 	0.012882836 	0.028154566 	2.0964611
0.0013668342 	0.013171384 	0.030911082 	2.0863241
0.0013869347 	0.013171384 	0.030911082 	2.0863241
0.0014070352 	0.013811774 	0.03192558 	2.0896722
0.0014271357 	0.014643313 	0.034851847 	2.0806871
0.0014472362 	0.014643313 	0.034851847 	2.0806871
0.0014673367 	0.014643313 	0.034851847 	2.0806871
0.0014874372 	0.015289087 	0.036241077 	2.0706078
0.0015075377 	0.015289087 	0.036241077 	2.0706078
0.0015276382 	0.015836846 	0.035643097 	2.0602893
0.0015477387 	0.015836846 	0.035643097 	2.0602893
0.0015678392 	0.015836846 	0.035643097 	2.0602893
0.0015879397 	0.014351667 	0.031360197 	2.0472574
0.0016080402 	0.014351667 	0.031360197 	2.0472574
0.0016281407 	0.014351667 	0.031360197 	2.0472574
0.0016482412 	0.014773219 	0.027743903 	2.0348247
0.0016683417 	0.017536224 	0.028841083 	2.0389281
0.0016884422 	0.018997557 	0.02380864 	2.0264331
0.0017085427 	0.018997557 	0.02380864 	2.0264331
0.0017286432 	0.018997557 	0.02380864 	2.0264331
0.0017487437 	0.020674389 	0.018880521 	2.0114651
0.0017688442 	0.020674389 	0.018880521 	2.0114651
0.0017889447 	0.020674389 	0.018880521 	2.0114651
0.0018090452 	0.021982538 	0.015103563 	1.9935145
0.0018291457 	0.021982538 	0.015103563 	1.9935145
0.0018492462 	0.022092818 	0.013457449 	1.9731118
0.0018693467 	0.022092818 	0.013457449 	1.9731118
0.0018894472 	0.022092818 	0.013457449 	1.9731118
0.0019095477 	0.020255467 	0.014613857 	1.952153
0.0019296482 	0.020255467 	0.014613857 	1.952153
0.0019497487 	0.016161942 	0.018746549 	1.9333572
0.0019698492 	0.016161942 	0.018746549 	1.9333572
0.0019899497 	0.010105568 	0.025475656 	1.9190039
0.0020100503 	0.010105568 	0.025475656 	1.9190039
0.0020301508 	0.010105568 	0.025475656 	1.9190039
0.0020502513 	0.0028425734 	0.033939902 	1.9099712
0.0020703518 	0.0028425734 	0.033939902 	1.9099712
0.0020904523 	-0.0047093743 	0.042993591 	1.9056956
0.0021105528 	-0.0047093743 	0.042993591 	1.9056956
0.0021306533 	-0.0047093743 	0.042993591 	1.9056956
0.0021507538 	-0.011745501 	0.051462154 	1.9047763
0.0021708543 	-0.011745501 	0.051462154 	1.9047763
0.0021909548 	-0.017720487 	0.058367616 	1.9057017
0.0022110553 	-0.017720487 	0.058367616 	1.9057017
0.0022311558 	-0.022372075 	0.063025017 	1.9073953
0.0022512563 	-0.022372075 	0.063025017 	1.9073953
0.0022713568 	-0.025646806 	0.065070748 	1.9094418
0.0022914573 	-0.025646806 	0.065070748 	1.9094418
0.0023115578 	-0.025646806 	0.065070748 	1.9094418
0.0023316583 	-0.027619444 	0.064408551 	1.9119707
0.0023517588 	-0.027619444 	0.064408551 	1.9119707
0.0023718593 	-0.028432615 	0.061168406 	1.9153184
0.0023919598 	-0.028432615 	0.061168406 	1.9153184
0.0024120603 	-0.028258302 	0.055671721 	1.9196793
0.0024321608 	-0.028258302 	0.055671721 	1.9196793
0.0024522613 	-0.027275852 	0.048365149 	1.9248813
0.0024723618 	-0.027275852 	0.048365149 	1.9248813
0.0024924623 	-0.025650231 	0.039772261 	1.9304168
0.0025125628 	-0.025650231 	0.039772261 	1.9304168
0.0025326633 	-0.023545232 	0.030425781 	1.935566
0.0025527638 	-0.023545232 	0.030425781 	1.935566
0.0025728643 	-0.021122361 	0.020826422 	1.9396281
0.0025929648 	-0.021122361 	0.020826422 	1.9396281
0.0026130653 	-0.018523713 	0.011405604 	1.94209
0.0026331658 	-0.018523713 	0.011405604 	1.94209
0.0026532663 	-0.015899022 	0.0025122122 	1.9427238
0.0026733668 	-0.015899022 	0.0025122122 	1.9427238
0.0026934673 	-0.013413837 	-0.0055836596 	1.9416035
0.0027135678 	-0.013413837 	-0.0055836596 	1.9416035
0.0027336683 	-0.011215259 	-0.012668632 	1.9390879
0.0027537688 	-0.011215259 	-0.012668632 	1.9390879
0.0027738693 	-0.0094348808 	-0.018582133 	1.9357568
0.0027939698 	-0.0094348808 	-0.018582133 	1.9357568
0.0028140704 	-0.0081772989 	-0.023179026 	1.9323323
0.0028341709 	-0.0081772989 	-0.023179026 	1.9323323
0.0028542714 	-0.0074873118 	-0.026297152 	1.929548
0.0028743719 	-0.0073224956 	-0.027734907 	1.9279378
0.0028944724 	-0.0073224956 	-0.027734907 	1.9279378
0.0029145729 	-0.007526139 	-0.027262852 	1.927543
0.0029346734 	-0.007526139 	-0.027262852 	1.927543
0.0029547739 	-0.0078374116 	-0.024687627 	1.9275874
0.0029748744 	-0.0078374116 	-0.024687627 	1.9275874
0.0029949749 	-0.0079388551 	-0.019966327 	1.9263056
0.0030150754 	-0.0075317005 	-0.013344226 	1.9210817
0.0030351759 	-0.0075317005 	-0.013344226 	1.9210817
0.0030552764 	-0.0064278964 	-0.005467508 	1.9089733
0.0030753769 	-0.0064278964 	-0.005467508 	1.9089733
0.0030954774 	-0.0046344013 	0.0026124043 	1.8875497
0.0031155779 	-0.002354065 	0.009635963 	1.8558391
0.0031356784 	-0.002354065 	0.009635963 	1.8558391
0.0031557789 	0.0001553501 	0.014569241 	1.8149369
0.0031758794 	0.0001553501 	0.014569241 	1.8149369
0.0031959799 	0.0026452052 	0.017082451 	1.7679271
0.0032160804 	0.0048726345 	0.017650853 	1.7188573
0.0032361809 	0.0048726345 	0.017650853 	1.7188573
0.0032562814 	0.0066943314 	0.017186221 	1.6715187
0.0032763819 	0.0081213743 	0.016515893 	1.6285669
0.0032964824 	0.0081213743 	0.016515893 	1.6285669
0.0033165829 	0.0092711569 	0.016081249 	1.5913263
0.0033366834 	0.010291813 	0.015935895 	1.5601028
0.0033567839 	0.010291813 	0.015935895 	1.5601028
0.0033768844 	0.01129652 	0.015907247 	1.5346394
0.0033969849 	0.012332211 	0.015764527 	1.5144662
0.0034170854 	0.012332211 	0.015764527 	1.5144662
0.0034371859 	0.013382923 	0.015320965 	1.4990794
0.0034572864 	0.014389346 	0.014470111 	1.4879611
0.0034773869 	0.015271194 	0.013182015 	1.4805394
0.0034974874 	0.015271194 	0.013182015 	1.4805394
0.0035175879 	0.015946561 	0.011482178 	1.4761199
0.0035376884 	0.016345923 	0.0094270722 	1.4738116
0.0035577889 	0.016420136 	0.0070829723 	1.4724505
0.0035778894 	0.016420136 	0.0070829723 	1.4724505
0.0035979899 	0.016145727 	0.0045114355 	1.4705216
0.0036180905 	0.015523695 	0.0017633658 	1.4660946
0.003638191 	0.014576259 	-0.0011179519 	1.4568177
0.0036582915 	0.014576259 	-0.0011179519 	1.4568177
0.003678392 	0.013346974 	-0.0040878085 	1.4399344
0.0036984925 	0.011907871 	-0.007084105 	1.412506
0.003718593 	0.0103448 	-0.01001288 	1.3717558
0.0037386935 	0.0087441617 	-0.012745072 	1.3154982
0.003758794 	0.0071869628 	-0.015130233 	1.2425804
0.0037788945 	0.0071869628 	-0.015130233 	1.2425804
0.003798995 	0.0057400854 	-0.017018079 	1.1531998
0.0038190955 	0.0044493117 	-0.018287325 	1.0489868
0.003839196 	0.003337978 	-0.018862191 	0.93280337
0.0038592965 	0.0024105159 	-0.018710625 	0.80829569
0.003879397 	0.0016583624 	-0.017826954 	0.67931206
0.0038994975 	0.001066554 	-0.01621041 	0.54933062
0.003919598 	0.0006185571 	-0.013853087 	0.42102645
0.0039396985 	0.00029982841 	-0.010746774 	0.29605163
0.003959799 	9.9149226e-05 	-0.0069120364 	0.17502791
0.0039798995 	8.3668895e-06 	-0.002446361 	0.057685395
0.004 	8.3668895e-06 	-0.002446361 	0.057685395
