0 	-0.0033335581 	-0.0037990947 	1.0712357
5.5555556e-05 	-0.0084808038 	0.0085443787 	1.0662802
0.00011111111 	-0.010261564 	0.012505475 	1.0613038
0.00016666667 	-0.011546927 	0.015511163 	1.0544035
0.00022222222 	-0.012204985 	0.017172507 	1.0468452
0.00027777778 	-0.01244194 	0.017533428 	1.0404386
0.00033333333 	-0.012519779 	0.017211995 	1.0363839
0.00038888889 	-0.012581864 	0.017184922 	1.0346743
0.00044444444 	-0.012629666 	0.018392932 	1.0344716
0.0005 	-0.012590947 	0.021416909 	1.0349356
0.00055555556 	-0.012389572 	0.02640091 	1.035666
0.00061111111 	-0.011942131 	0.033106186 	1.0365706
0.00066666667 	-0.011119115 	0.040945551 	1.03757
0.00072222222 	-0.0097397496 	0.049004985 	1.0384509
0.00077777778 	-0.0075811755 	0.056109366 	1.0389001
0.00083333333 	-0.0044419881 	0.060899936 	1.038632
0.00088888889 	-0.00023765784 	0.061988601 	1.0375733
0.00094444444 	0.0048305463 	0.058278014 	1.0360643
0.001 	0.010306073 	0.048937581 	1.0349197
0.0010617199 	0.014825472 	0.034442448 	1.0357136
0.0011225874 	0.016793604 	0.018632941 	1.0392652
0.0011826143 	0.016114219 	0.0047534199 	1.0445249
0.0012418122 	0.014013917 	-0.0057064215 	1.0483799
0.0013001926 	0.01206995 	-0.012547304 	1.0461475
0.0013577668 	0.011213764 	-0.015899213 	1.0337773
0.0014145458 	0.011142155 	-0.016317054 	1.0113473
0.0014705407 	0.010495234 	-0.015507662 	0.9843286
0.0015257623 	0.0079292316 	-0.015794154 	0.95987357
0.0015802213 	0.003196348 	-0.018397801 	0.94190358
0.0016339282 	-0.0029242598 	-0.022877134 	0.93016541
0.0016868934 	-0.0093529341 	-0.02805946 	0.92250705
0.0017391271 	-0.015408327 	-0.033184574 	0.91677039
0.0017906395 	-0.020998531 	-0.038104501 	0.91166992
0.0018414404 	-0.02630533 	-0.042758817 	0.90695011
0.0018915398 	-0.031394043 	-0.046698817 	0.90307889
0.0019409473 	-0.035977026 	-0.049160727 	0.90058819
0.0019896725 	-0.039529369 	-0.049340095 	0.8996151
0.0020377248 	-0.041525076 	-0.046622829 	0.89988319
0.0020851134 	-0.041656922 	-0.040763801 	0.9009311
0.0021318476 	-0.039924054 	-0.03193051 	0.90229714
0.0021779364 	-0.036626518 	-0.020564706 	0.90365808
0.0022233887 	-0.032324336 	-0.0074541876 	0.90482528
0.0022682133 	-0.02763895 	0.0064220431 	0.90575592
0.0023124189 	-0.023069262 	0.020064212 	0.90653695
0.0023560139 	-0.018979376 	0.032571108 	0.90729404
0.0023990069 	-0.015589942 	0.043262227 	0.90811499
0.0024414062 	-0.012937715 	0.051707953 	0.90901533
0.0024832199 	-0.010867396 	0.057700186 	0.90993618
0.0025244562 	-0.0090706685 	0.061243379 	0.91072728
0.002565123 	-0.0071768071 	0.062523422 	0.91111388
0.0026052281 	-0.0048424054 	0.061898531 	0.9106472
0.0026447794 	-0.00185764 	0.059929405 	0.90865506
0.0026837845 	0.0017899213 	0.057368539 	0.90421606
0.0027222509 	0.0059106533 	0.055052717 	0.89621824
0.0027601861 	0.010188302 	0.053692498 	0.88355109
0.0027975974 	0.014280657 	0.053646353 	0.86544796
0.002834492 	0.017887245 	0.054810736 	0.84196383
0.0028708772 	0.020767592 	0.056679316 	0.81438785
0.0029067598 	0.02274516 	0.058536729 	0.78520072
0.0029421469 	0.023711786 	0.059694328 	0.75740797
0.0029770452 	0.023671503 	0.059669735 	0.73355055
0.0030114616 	0.022759337 	0.058254172 	0.71496706
0.0030454028 	0.021173701 	0.055475112 	0.70173283
0.0030788752 	0.019117277 	0.051520022 	0.69304006
0.0031118853 	0.016753233 	0.046651239 	0.68774871
0.0031444395 	0.014196291 	0.04114811 	0.68470147
0.0031765442 	0.011531902 	0.035268582 	0.68283639
0.0032082055 	0.0088468795 	0.029255927 	0.68108016
0.0032394295 	0.0062500749 	0.023383619 	0.67822522
0.0032702223 	0.0038881328 	0.017985076 	0.67292043
0.0033005899 	0.001929483 	0.013408983 	0.66388634
0.0033305381 	0.00052763367 	0.0099116912 	0.65028408
0.0033600727 	-0.0002185875 	0.007562858 	0.63200795
0.0033891994 	-0.00030777659 	0.0062470254 	0.60974919
0.0034179239 	0.00016705955 	0.0057285772 	0.5847835
0.0034462517 	0.0010441439 	0.0057246709 	0.55863646
0.0034741882 	0.0021221623 	0.0059528055 	0.5327736
0.003501739 	0.0032023532 	0.0061386309 	0.5083832
0.0035289093 	0.0041166695 	0.0060352749 	0.48626153
0.0035557043 	0.0047472443 	0.0054414729 	0.46678639
0.0035821293 	0.0050316832 	0.0042265148 	0.44994545
0.0036081894 	0.004958421 	0.0023525873 	0.43539555
0.0036338895 	0.0045572454 	-0.00011618242 	0.42253304
0.0036592348 	0.0038901008 	-0.0030227517 	0.4105669
0.00368423 	0.0030404589 	-0.0061426366 	0.39859308
0.00370888 	0.0021019666 	-0.0092202889 	0.38567728
0.0037331896 	0.0011720601 	-0.012002595 	0.37093843
0.0037571635 	0.00034251931 	-0.014268143 	0.35361922
0.0037808063 	-0.00031380555 	-0.015843619 	0.33315696
0.0038041226 	-0.00075281715 	-0.016613814 	0.30922973
0.0038271169 	-0.00096500834 	-0.016529153 	0.28177113
0.0038497936 	-0.00097559578 	-0.015613857 	0.25095264
0.0038721572 	-0.00083714809 	-0.013969278 	0.21713717
0.0038942119 	-0.00061602871 	-0.011767351 	0.18081413
0.003915962 	-0.00037766458 	-0.0092287028 	0.14252678
0.0039374118 	-0.00017515962 	-0.0065825282 	0.10280131
0.0039585653 	-4.2825036e-05 	-0.0039977337 	0.062093377
0.0039794267 	1.7304666e-06 	-0.0014575646 	0.020801149
0.004 	1.7304666e-06 	-0.0014575646 	0.020801149
