0 	0.0053113863 	0.017085713 	1.0391275
5.5555556e-05 	-0.023896374 	-0.0086220851 	1.05638
0.00011111111 	-0.023976743 	-0.012779134 	1.0619924
0.00016666667 	-0.023855803 	-0.014092174 	1.0656326
0.00022222222 	-0.023614341 	-0.013787816 	1.0675144
0.00027777778 	-0.023279709 	-0.012426292 	1.0679173
0.00033333333 	-0.022827246 	-0.010340047 	1.0671483
0.00038888889 	-0.022202013 	-0.0077557218 	1.0654831
0.00044444444 	-0.02135723 	-0.004853659 	1.0630908
0.0005 	-0.020276736 	-0.0017920319 	1.060004
0.00055555556 	-0.018967498 	0.0012986855 	1.0561309
0.00061111111 	-0.017445606 	0.0043452798 	1.0513022
0.00066666667 	-0.015719167 	0.0073990647 	1.0453086
0.00072222222 	-0.013769924 	0.010702686 	1.0379501
0.00077777778 	-0.011568168 	0.014736035 	1.0290821
0.00083333333 	-0.0091322083 	0.020153285 	1.0186939
0.00088888889 	-0.0065921689 	0.027525444 	1.0070033
0.00094444444 	-0.0042671128 	0.036887422 	0.99450808
0.001 	-0.0024527086 	0.047829797 	0.98111897
0.0010617451 	-0.0020068248 	0.057307864 	0.96719677
0.0011226367 	-0.0036548431 	0.060080593 	0.95283706
0.0011826866 	-0.0075750747 	0.053499333 	0.93766802
0.0012419064 	-0.013273492 	0.040319324 	0.92300071
0.0013003077 	-0.019589684 	0.026415746 	0.91108997
0.0013579017 	-0.025443895 	0.014977358 	0.90322474
0.0014146996 	-0.030484183 	0.0057121171 	0.89831344
0.0014707124 	-0.035013409 	-0.0025186736 	0.89357136
0.0015259509 	-0.03936928 	-0.01023104 	0.88725245
0.001580426 	-0.043730389 	-0.017217087 	0.87989271
0.001634148 	-0.048046085 	-0.022721023 	0.87320781
0.0016871274 	-0.051853806 	-0.026031684 	0.86871166
0.0017393745 	-0.054587958 	-0.026926086 	0.86702597
0.0017908994 	-0.055976481 	-0.025811682 	0.86775374
0.0018417121 	-0.056157451 	-0.023468421 	0.8697632
0.0018918224 	-0.055488746 	-0.020618964 	0.87173169
0.0019412401 	-0.054333642 	-0.017716111 	0.87265074
0.0019899746 	-0.052988244 	-0.014988123 	0.87206448
0.0020380356 	-0.051676361 	-0.01252537 	0.8700228
0.0020854322 	-0.050578997 	-0.010314868 	0.86687396
0.0021321736 	-0.049834209 	-0.0082793003 	0.86306979
0.002178269 	-0.049492811 	-0.0063256594 	0.85903224
0.0022237272 	-0.049542284 	-0.0043822446 	0.85506792
0.002268557 	-0.049913735 	-0.0024223228 	0.85134343
0.0023127672 	-0.05048556 	-0.00046138679 	0.84788032
0.0023563662 	-0.051107645 	0.001441554 	0.84463165
0.0023993626 	-0.05165091 	0.0032219112 	0.84154759
0.0024417647 	-0.051989743 	0.0048392357 	0.83860848
0.0024835806 	-0.052021381 	0.0062811363 	0.83582088
0.0025248186 	-0.051686093 	0.0075750226 	0.83319732
0.0025654865 	-0.050932492 	0.0087703505 	0.83074866
0.0026055923 	-0.049732794 	0.0099324805 	0.82848937
0.0026451437 	-0.048099153 	0.011120268 	0.82644013
0.0026841484 	-0.046071545 	0.012380297 	0.82463232
0.002722614 	-0.043714641 	0.013746651 	0.82310833
0.0027605478 	-0.041097694 	0.015240684 	0.82191038
0.0027979573 	-0.038292569 	0.01686844 	0.82107761
0.0028348498 	-0.035376133 	0.01863054 	0.82063413
0.0028712322 	-0.032440036 	0.020522648 	0.82057489
0.0029071118 	-0.029577278 	0.022525832 	0.82085268
0.0029424953 	-0.026856449 	0.024587593 	0.82138665
0.0029773898 	-0.024342413 	0.026625652 	0.82202836
0.003011802 	-0.022073665 	0.028528799 	0.82259015
0.0030457385 	-0.020069237 	0.030166522 	0.82286083
0.0030792059 	-0.018342839 	0.031409196 	0.82263264
0.0031122107 	-0.016897308 	0.032148978 	0.82176072
0.0031447592 	-0.015752882 	0.032338314 	0.82023426
0.0031768579 	-0.014974912 	0.032004327 	0.81823547
0.0032085129 	-0.014678275 	0.031226588 	0.81609683
0.0032397303 	-0.014971245 	0.030084333 	0.81417151
0.0032705162 	-0.015893256 	0.028619325 	0.81263581
0.0033008765 	-0.01737209 	0.02687883 	0.81133892
0.0033308172 	-0.01925014 	0.025061198 	0.8098086
0.0033603441 	-0.021379282 	0.023710391 	0.80741998
0.0033894627 	-0.023702914 	0.023774852 	0.80351536
0.0034181789 	-0.026223759 	0.026285377 	0.79718181
0.0034464982 	-0.028835067 	0.031660269 	0.78672652
0.003474426 	-0.031153949 	0.039006159 	0.76949759
0.0035019678 	-0.032561491 	0.046165894 	0.74276653
0.0035291288 	-0.032500453 	0.050727105 	0.70542566
0.0035559144 	-0.030823904 	0.051322267 	0.65916626
0.0035823298 	-0.027897174 	0.04821731 	0.6080588
0.0036083801 	-0.024395736 	0.042867725 	0.55685574
0.0036340702 	-0.020981653 	0.036959426 	0.50927474
0.0036594053 	-0.018068522 	0.031667407 	0.4671491
0.0036843901 	-0.015756702 	0.027430916 	0.43053326
0.0037090296 	-0.013915275 	0.024124175 	0.39838147
0.0037333285 	-0.012326414 	0.021373624 	0.36928363
0.0037572915 	-0.010803419 	0.018822381 	0.34194156
0.0037809233 	-0.009245583 	0.016269742 	0.31533367
0.0038042285 	-0.0076379333 	0.01369736 	0.28868579
0.0038272115 	-0.0060253012 	0.011224836 	0.26138824
0.0038498768 	-0.0044805074 	0.0090483493 	0.23295266
0.0038722288 	-0.0030808976 	0.0073658217 	0.20300776
0.0038942718 	-0.0018945558 	0.0063107597 	0.17129617
0.0039160102 	-0.00097438252 	0.0058945415 	0.13763695
0.003937448 	-0.0003502535 	0.0059012499 	0.10184018
0.0039585896 	-1.5715155e-05 	0.0056588668 	0.063588774
0.0039794389 	3.7752274e-05 	0.0035806484 	0.02239239
0.004 	9.8419952e-05 	0.0032814638 	0.030062797
