0 	-0.0092122239 	0.046531013 	1.0677669
2.0100503e-05 	-0.0092122239 	0.046531013 	1.0677669
4.0201005e-05 	-0.0092122239 	0.046531013 	1.0677669
6.0301508e-05 	-0.030061852 	0.034638788 	1.0594272
8.040201e-05 	-0.030061852 	0.034638788 	1.0594272
0.00010050251 	-0.030061852 	0.034638788 	1.0594272
0.00012060302 	-0.034731778 	0.026446757 	1.0518043
0.00014070352 	-0.034731778 	0.026446757 	1.0518043
0.00016080402 	-0.034731778 	0.026446757 	1.0518043
0.00018090452 	-0.036269734 	0.01918766 	1.0459785
0.00020100503 	-0.036269734 	0.01918766 	1.0459785
0.00022110553 	-0.036269734 	0.01918766 	1.0459785
0.00024120603 	-0.036445377 	0.011983902 	1.0426668
0.00026130653 	-0.036445377 	0.011983902 	1.0426668
0.00028140704 	-0.035764224 	0.0048001643 	1.0421521
0.00030150754 	-0.035764224 	0.0048001643 	1.0421521
0.00032160804 	-0.035764224 	0.0048001643 	1.0421521
0.00034170854 	-0.034518568 	-0.0021803424 	1.0442237
0.00036180905 	-0.034518568 	-0.0021803424 	1.0442237
0.00038190955 	-0.034518568 	-0.0021803424 	1.0442237
0.00040201005 	-0.032986935 	-0.008771399 	1.0481024
0.00042211055 	-0.032986935 	-0.008771399 	1.0481024
0.00044221106 	-0.032986935 	-0.008771399 	1.0481024
0.00046231156 	-0.031452533 	-0.014847597 	1.0524156
0.00048241206 	-0.031452533 	-0.014847597 	1.0524156
0.00050251256 	-0.030160671 	-0.020238774 	1.0553607
0.00052261307 	-0.030160671 	-0.020238774 	1.0553607
0.00054271357 	-0.030160671 	-0.020238774 	1.0553607
0.00056281407 	-0.029304352 	-0.024471616 	1.0551234
0.00058291457 	-0.029304352 	-0.024471616 	1.0551234
0.00060301508 	-0.029304352 	-0.024471616 	1.0551234
0.00062311558 	-0.026634975 	-0.033956399 	1.0497047
0.00064321608 	-0.026634975 	-0.033956399 	1.0497047
0.00066331658 	-0.026634975 	-0.033956399 	1.0497047
0.00068341709 	-0.027633717 	-0.032800695 	1.0421137
0.00070351759 	-0.027633717 	-0.032800695 	1.0421137
0.00072361809 	-0.030492321 	-0.026840791 	1.0321922
0.00074371859 	-0.030492321 	-0.026840791 	1.0321922
0.0007638191 	-0.030492321 	-0.026840791 	1.0321922
0.0007839196 	-0.0354194 	-0.015447672 	1.022542
0.0008040201 	-0.036082045 	-0.0069832177 	1.0189318
0.0008241206 	-0.036082045 	-0.0069832177 	1.0189318
0.00084422111 	-0.040905284 	0.008624291 	1.0095865
0.00086432161 	-0.040905284 	0.008624291 	1.0095865
0.00088442211 	-0.040905284 	0.008624291 	1.0095865
0.00090452261 	-0.045380447 	0.024820143 	1.0017074
0.00092462312 	-0.045380447 	0.024820143 	1.0017074
0.00094472362 	-0.048117615 	0.03701616 	0.99221231
0.00096482412 	-0.048117615 	0.03701616 	0.99221231
0.00098492462 	-0.048117615 	0.03701616 	0.99221231
0.0010050251 	-0.048233479 	0.041292518 	0.97646603
0.0010251256 	-0.048233479 	0.041292518 	0.97646603
0.0010452261 	-0.048233479 	0.041292518 	0.97646603
0.0010653266 	-0.052016702 	0.0336228 	0.96336723
0.0010854271 	-0.052016702 	0.0336228 	0.96336723
0.0011055276 	-0.044790805 	0.032863718 	0.95180327
0.0011256281 	-0.038696956 	0.011602924 	0.92159642
0.0011457286 	-0.038696956 	0.011602924 	0.92159642
0.0011658291 	-0.038696956 	0.011602924 	0.92159642
0.0011859296 	-0.036192772 	-0.010828081 	0.90670663
0.0012060302 	-0.036192772 	-0.010828081 	0.90670663
0.0012261307 	-0.036192772 	-0.010828081 	0.90670663
0.0012462312 	-0.02555599 	-0.042681534 	0.87855981
0.0012663317 	-0.02555599 	-0.042681534 	0.87855981
0.0012864322 	-0.02555599 	-0.042681534 	0.87855981
0.0013065327 	-0.015955117 	-0.072513695 	0.85372203
0.0013266332 	-0.015955117 	-0.072513695 	0.85372203
0.0013467337 	-0.015955117 	-0.072513695 	0.85372203
0.0013668342 	-0.0093083098 	-0.095331673 	0.83565485
0.0013869347 	-0.0093083098 	-0.095331673 	0.83565485
0.0014070352 	-0.0093083098 	-0.095331673 	0.83565485
0.0014271357 	-0.0058633148 	-0.11008677 	0.82584218
0.0014472362 	-0.0058633148 	-0.11008677 	0.82584218
0.0014673367 	-0.0058633148 	-0.11008677 	0.82584218
0.0014874372 	-0.0044767328 	-0.11850238 	0.82313419
0.0015075377 	-0.0044767328 	-0.11850238 	0.82313419
0.0015276382 	-0.0036724872 	-0.1230404 	0.82480628
0.0015477387 	-0.0036724872 	-0.1230404 	0.82480628
0.0015678392 	-0.0036724872 	-0.1230404 	0.82480628
0.0015879397 	-0.002260137 	-0.12567375 	0.82775541
0.0016080402 	-0.002260137 	-0.12567375 	0.82775541
0.0016281407 	-0.002260137 	-0.12567375 	0.82775541
0.0016482412 	0.00034464809 	-0.12788453 	0.82924364
0.0016683417 	0.00034464809 	-0.12788453 	0.82924364
0.0016884422 	0.0039833591 	-0.13114999 	0.82759856
0.0017085427 	0.0039833591 	-0.13114999 	0.82759856
0.0017286432 	0.0039833591 	-0.13114999 	0.82759856
0.0017487437 	0.0079644716 	-0.13664694 	0.82269949
0.0017688442 	0.0079644716 	-0.13664694 	0.82269949
0.0017889447 	0.0079644716 	-0.13664694 	0.82269949
0.0018090452 	0.011588287 	-0.14434591 	0.81563536
0.0018291457 	0.011588287 	-0.14434591 	0.81563536
0.0018492462 	0.014398981 	-0.15284849 	0.80791414
0.0018693467 	0.014398981 	-0.15284849 	0.80791414
0.0018894472 	0.014398981 	-0.15284849 	0.80791414
0.0019095477 	0.016198948 	-0.1601993 	0.80083173
0.0019296482 	0.016198948 	-0.1601993 	0.80083173
0.0019497487 	0.017165889 	-0.16480556 	0.79511943
0.0019698492 	0.017165889 	-0.16480556 	0.79511943
0.0019899497 	0.017700028 	-0.16584952 	0.79088432
0.0020100503 	0.017700028 	-0.16584952 	0.79088432
0.0020301508 	0.017700028 	-0.16584952 	0.79088432
0.0020502513 	0.018177988 	-0.16322771 	0.78783588
0.0020703518 	0.018177988 	-0.16322771 	0.78783588
0.0020904523 	0.018835185 	-0.15718744 	0.78558411
0.0021105528 	0.018835185 	-0.15718744 	0.78558411
0.0021306533 	0.018835185 	-0.15718744 	0.78558411
0.0021507538 	0.019694202 	-0.14807852 	0.78379913
0.0021708543 	0.019694202 	-0.14807852 	0.78379913
0.0021909548 	0.020615166 	-0.13631709 	0.78229552
0.0022110553 	0.020615166 	-0.13631709 	0.78229552
0.0022311558 	0.021386064 	-0.12256365 	0.78097884
0.0022512563 	0.021386064 	-0.12256365 	0.78097884
0.0022713568 	0.021785413 	-0.10788613 	0.77980704
0.0022914573 	0.021785413 	-0.10788613 	0.77980704
0.0023115578 	0.021785413 	-0.10788613 	0.77980704
0.0023316583 	0.021639609 	-0.093457401 	0.77900353
0.0023517588 	0.021639609 	-0.093457401 	0.77900353
0.0023718593 	0.020842734 	-0.079841454 	0.77937672
0.0023919598 	0.020842734 	-0.079841454 	0.77937672
0.0024120603 	0.019389075 	-0.066726565 	0.78209023
0.0024321608 	0.019389075 	-0.066726565 	0.78209023
0.0024522613 	0.017437667 	-0.05353272 	0.78764705
0.0024723618 	0.017437667 	-0.05353272 	0.78764705
0.0024924623 	0.015336833 	-0.040299276 	0.79519456
0.0025125628 	0.015336833 	-0.040299276 	0.79519456
0.0025326633 	0.013565203 	-0.027868453 	0.80312057
0.0025527638 	0.013565203 	-0.027868453 	0.80312057
0.0025728643 	0.012597603 	-0.017342933 	0.81031829
0.0025929648 	0.012597603 	-0.017342933 	0.81031829
0.0026130653 	0.012726952 	-0.009435013 	0.81677029
0.0026331658 	0.012726952 	-0.009435013 	0.81677029
0.0026532663 	0.014005464 	-0.0041409006 	0.82315451
0.0026733668 	0.014005464 	-0.0041409006 	0.82315451
0.0026934673 	0.016291828 	-0.00083672442 	0.83016908
0.0027135678 	0.016291828 	-0.00083672442 	0.83016908
0.0027336683 	0.019323194 	0.001375124 	0.83817223
0.0027537688 	0.019323194 	0.001375124 	0.83817223
0.0027738693 	0.022791961 	0.0033137927 	0.84718225
0.0027939698 	0.022791961 	0.0033137927 	0.84718225
0.0028140704 	0.026382568 	0.0055171291 	0.85697104
0.0028341709 	0.026382568 	0.0055171291 	0.85697104
0.0028542714 	0.029772658 	0.0081932467 	0.86715909
0.0028743719 	0.032618605 	0.011293293 	0.87727515
0.0028944724 	0.032618605 	0.011293293 	0.87727515
0.0029145729 	0.034557395 	0.014631572 	0.88685271
0.0029346734 	0.034557395 	0.014631572 	0.88685271
0.0029547739 	0.03524872 	0.018017369 	0.89541877
0.0029748744 	0.03524872 	0.018017369 	0.89541877
0.0029949749 	0.034376489 	0.021371178 	0.90228822
0.0030150754 	0.031796018 	0.024735461 	0.90612803
0.0030351759 	0.031796018 	0.024735461 	0.90612803
0.0030552764 	0.027713563 	0.028233354 	0.90458527
0.0030753769 	0.027713563 	0.028233354 	0.90458527
0.0030954774 	0.022707922 	0.031868922 	0.89479147
0.0031155779 	0.017674294 	0.035578128 	0.87485237
0.0031356784 	0.017674294 	0.035578128 	0.87485237
0.0031557789 	0.013583416 	0.039672784 	0.84542036
0.0031758794 	0.013583416 	0.039672784 	0.84542036
0.0031959799 	0.011106584 	0.044877111 	0.8100986
0.0032160804 	0.010443666 	0.051712836 	0.77410045
0.0032361809 	0.010443666 	0.051712836 	0.77410045
0.0032562814 	0.011527756 	0.059716334 	0.74201573
0.0032763819 	0.014227436 	0.067389162 	0.71631514
0.0032964824 	0.014227436 	0.067389162 	0.71631514
0.0033165829 	0.018485072 	0.072955577 	0.69729889
0.0033366834 	0.024283651 	0.075045312 	0.68393066
0.0033567839 	0.024283651 	0.075045312 	0.68393066
0.0033768844 	0.031504746 	0.073039808 	0.67470758
0.0033969849 	0.039888619 	0.067072587 	0.66813446
0.0034170854 	0.039888619 	0.067072587 	0.66813446
0.0034371859 	0.049036855 	0.057784328 	0.66285364
0.0034572864 	0.058472685 	0.046123363 	0.65771478
0.0034773869 	0.067704243 	0.033157324 	0.65180309
0.0034974874 	0.067704243 	0.033157324 	0.65180309
0.0035175879 	0.076240853 	0.019961379 	0.64449972
0.0035376884 	0.083575487 	0.0075245649 	0.63552516
0.0035577889 	0.089211719 	-0.0032454152 	0.62496237
0.0035778894 	0.089211719 	-0.0032454152 	0.62496237
0.0035979899 	0.092713156 	-0.011557461 	0.61327624
0.0036180905 	0.093666068 	-0.016749029 	0.60133529
0.003638191 	0.091739558 	-0.018378271 	0.59047072
0.0036582915 	0.091739558 	-0.018378271 	0.59047072
0.003678392 	0.08663553 	-0.016289205 	0.58245149
0.0036984925 	0.07829899 	-0.010648655 	0.5790336
0.003718593 	0.067228479 	-0.001911307 	0.58055044
0.0037386935 	0.054480595 	0.0093121662 	0.58405724
0.003758794 	0.041581574 	0.022196307 	0.58277918
0.0037788945 	0.041581574 	0.022196307 	0.58277918
0.003798995 	0.030092341 	0.035447995 	0.56830944
0.0038190955 	0.021044889 	0.047259295 	0.53464205
0.003839196 	0.01465523 	0.055800889 	0.48130172
0.0038592965 	0.010448737 	0.059941133 	0.41340839
0.003879397 	0.0076556301 	0.059564241 	0.3388275
0.0038994975 	0.0055999187 	0.055296252 	0.26467778
0.003919598 	0.0038760704 	0.047923209 	0.19535481
0.0039396985 	0.0023399999 	0.037885586 	0.13243246
0.003959799 	0.0010474875 	0.025089009 	0.075571312
0.0039798995 	0.00015979985 	0.0092126845 	0.023722569
0.004 	0.00015979985 	0.0092126845 	0.023722569
