0 	0.01194575 	0.0086677318 	1.0378667
2.0100503e-05 	-0.0093218137 	0.0096579392 	1.0395326
4.0201005e-05 	-0.0093218137 	0.0096579392 	1.0395326
6.0301508e-05 	-0.012372628 	0.0020185333 	1.0411506
8.040201e-05 	-0.012372628 	0.0020185333 	1.0411506
0.00010050251 	-0.012372628 	0.0020185333 	1.0411506
0.00012060302 	-0.012046101 	-0.0020909197 	1.0427605
0.00014070352 	-0.012046101 	-0.0020909197 	1.0427605
0.00016080402 	-0.012046101 	-0.0020909197 	1.0427605
0.00018090452 	-0.011356211 	-0.0054567976 	1.0444182
0.00020100503 	-0.011356211 	-0.0054567976 	1.0444182
0.00022110553 	-0.011356211 	-0.0054567976 	1.0444182
0.00024120603 	-0.010585791 	-0.0086381351 	1.0461873
0.00026130653 	-0.010585791 	-0.0086381351 	1.0461873
0.00028140704 	-0.0097968859 	-0.011759098 	1.0481205
0.00030150754 	-0.0097968859 	-0.011759098 	1.0481205
0.00032160804 	-0.0097968859 	-0.011759098 	1.0481205
0.00034170854 	-0.009020133 	-0.014816334 	1.0502382
0.00036180905 	-0.009020133 	-0.014816334 	1.0502382
0.00038190955 	-0.009020133 	-0.014816334 	1.0502382
0.00040201005 	-0.0082763969 	-0.017758382 	1.0525053
0.00042211055 	-0.0082763969 	-0.017758382 	1.0525053
0.00044221106 	-0.0082763969 	-0.017758382 	1.0525053
0.00046231156 	-0.0075780024 	-0.020516866 	1.0548197
0.00048241206 	-0.0075780024 	-0.020516866 	1.0548197
0.00050251256 	-0.0069265436 	-0.023019288 	1.0570109
0.00052261307 	-0.0069265436 	-0.023019288 	1.0570109
0.00054271357 	-0.0069265436 	-0.023019288 	1.0570109
0.00056281407 	-0.0063064258 	-0.025202341 	1.0588599
0.00058291457 	-0.0063064258 	-0.025202341 	1.0588599
0.00060301508 	-0.0063064258 	-0.025202341 	1.0588599
0.00062311558 	-0.0056871227 	-0.027014277 	1.0601373
0.00064321608 	-0.0056871227 	-0.027014277 	1.0601373
0.00066331658 	-0.0056871227 	-0.027014277 	1.0601373
0.00068341709 	-0.0050279427 	-0.028413634 	1.0606504
0.00070351759 	-0.0050279427 	-0.028413634 	1.0606504
0.00072361809 	-0.0042954476 	-0.029353679 	1.0602771
0.00074371859 	-0.0042954476 	-0.029353679 	1.0602771
0.0007638191 	-0.0042954476 	-0.029353679 	1.0602771
0.0007839196 	-0.0034813293 	-0.029775493 	1.0589711
0.0008040201 	-0.0034813293 	-0.029775493 	1.0589711
0.0008241206 	-0.0034813293 	-0.029775493 	1.0589711
0.00084422111 	-0.0025884107 	-0.029588711 	1.0567274
0.00086432161 	-0.0025884107 	-0.029588711 	1.0567274
0.00088442211 	-0.0025884107 	-0.029588711 	1.0567274
0.00090452261 	-0.0016547603 	-0.028659781 	1.0535538
0.00092462312 	-0.0016547603 	-0.028659781 	1.0535538
0.00094472362 	-0.00066465421 	-0.026811757 	1.0494103
0.00096482412 	-0.00066465421 	-0.026811757 	1.0494103
0.00098492462 	-0.00066465421 	-0.026811757 	1.0494103
0.0010050251 	0.0023189595 	-0.025801661 	1.0413959
0.0010251256 	0.0023189595 	-0.025801661 	1.0413959
0.0010452261 	0.0023189595 	-0.025801661 	1.0413959
0.0010653266 	0.0031241017 	-0.020358679 	1.0333571
0.0010854271 	0.0031241017 	-0.020358679 	1.0333571
0.0011055276 	0.0031241017 	-0.020358679 	1.0333571
0.0011256281 	0.0042852731 	-0.01280702 	1.0235572
0.0011457286 	0.0042852731 	-0.01280702 	1.0235572
0.0011658291 	0.0042852731 	-0.01280702 	1.0235572
0.0011859296 	0.0059512017 	-0.003428785 	1.012341
0.0012060302 	0.0059512017 	-0.003428785 	1.012341
0.0012261307 	0.0059512017 	-0.003428785 	1.012341
0.0012462312 	0.0079309473 	0.0068907524 	1.000836
0.0012663317 	0.0079309473 	0.0068907524 	1.000836
0.0012864322 	0.0079309473 	0.0068907524 	1.000836
0.0013065327 	0.0097519961 	0.017019317 	0.9906936
0.0013266332 	0.0097519961 	0.017019317 	0.9906936
0.0013467337 	0.0097519961 	0.017019317 	0.9906936
0.0013668342 	0.010975533 	0.026021018 	0.98339362
0.0013869347 	0.010975533 	0.026021018 	0.98339362
0.0014070352 	0.010975533 	0.026021018 	0.98339362
0.0014271357 	0.011376598 	0.033366622 	0.97966436
0.0014472362 	0.011376598 	0.033366622 	0.97966436
0.0014673367 	0.011376598 	0.033366622 	0.97966436
0.0014874372 	0.011020413 	0.038767687 	0.97917068
0.0015075377 	0.011020413 	0.038767687 	0.97917068
0.0015276382 	0.010290901 	0.041988986 	0.98053269
0.0015477387 	0.010290901 	0.041988986 	0.98053269
0.0015678392 	0.010290901 	0.041988986 	0.98053269
0.0015879397 	0.0097451322 	0.0430284 	0.98206723
0.0016080402 	0.0097451322 	0.0430284 	0.98206723
0.0016281407 	0.0097451322 	0.0430284 	0.98206723
0.0016482412 	0.0096556359 	0.042277552 	0.98319702
0.0016683417 	0.0096556359 	0.042277552 	0.98319702
0.0016884422 	0.0096947815 	0.040163781 	0.98484497
0.0017085427 	0.0096947815 	0.040163781 	0.98484497
0.0017286432 	0.0096947815 	0.040163781 	0.98484497
0.0017487437 	0.0092892508 	0.036690325 	0.98805121
0.0017688442 	0.0092892508 	0.036690325 	0.98805121
0.0017889447 	0.0092892508 	0.036690325 	0.98805121
0.0018090452 	0.0081062546 	0.03172167 	0.9928952
0.0018291457 	0.0081062546 	0.03172167 	0.9928952
0.0018492462 	0.0060789599 	0.025476389 	0.99870445
0.0018693467 	0.0060789599 	0.025476389 	0.99870445
0.0018894472 	0.0060789599 	0.025476389 	0.99870445
0.0019095477 	0.0032995936 	0.01844527 	1.0045448
0.0019296482 	0.0032995936 	0.01844527 	1.0045448
0.0019497487 	5.9431662e-06 	0.011070523 	1.0094038
0.0019698492 	5.9431662e-06 	0.011070523 	1.0094038
0.0019899497 	5.9431662e-06 	0.011070523 	1.0094038
0.0020100503 	-0.0035322045 	0.0034601339 	1.0123171
0.0020301508 	-0.0035322045 	0.0034601339 	1.0123171
0.0020502513 	-0.0069704115 	-0.0045823398 	1.0126536
0.0020703518 	-0.0069704115 	-0.0045823398 	1.0126536
0.0020904523 	-0.0099521417 	-0.013249508 	1.0104212
0.0021105528 	-0.0099521417 	-0.013249508 	1.0104212
0.0021306533 	-0.0099521417 	-0.013249508 	1.0104212
0.0021507538 	-0.012296376 	-0.022612087 	1.0064305
0.0021708543 	-0.012296376 	-0.022612087 	1.0064305
0.0021909548 	-0.014058146 	-0.032624472 	1.001961
0.0022110553 	-0.014058146 	-0.032624472 	1.001961
0.0022311558 	-0.015447302 	-0.043122231 	0.99805534
0.0022512563 	-0.015447302 	-0.043122231 	0.99805534
0.0022713568 	-0.016826659 	-0.054157439 	0.99483627
0.0022914573 	-0.016826659 	-0.054157439 	0.99483627
0.0023115578 	-0.016826659 	-0.054157439 	0.99483627
0.0023316583 	-0.018604516 	-0.065815399 	0.99120045
0.0023517588 	-0.018604516 	-0.065815399 	0.99120045
0.0023718593 	-0.021107627 	-0.078109912 	0.98513284
0.0023919598 	-0.021107627 	-0.078109912 	0.98513284
0.0024120603 	-0.024717855 	-0.090557079 	0.97483627
0.0024321608 	-0.024717855 	-0.090557079 	0.97483627
0.0024522613 	-0.029702768 	-0.10153415 	0.96024521
0.0024723618 	-0.029702768 	-0.10153415 	0.96024521
0.0024924623 	-0.035907879 	-0.10814482 	0.94347189
0.0025125628 	-0.035907879 	-0.10814482 	0.94347189
0.0025326633 	-0.042598041 	-0.10733864 	0.92738701
0.0025527638 	-0.042598041 	-0.10733864 	0.92738701
0.0025728643 	-0.048750927 	-0.097551205 	0.91373965
0.0025929648 	-0.048750927 	-0.097551205 	0.91373965
0.0026130653 	-0.053549147 	-0.079676889 	0.90265395
0.0026331658 	-0.053549147 	-0.079676889 	0.90265395
0.0026532663 	-0.056643441 	-0.056572278 	0.89334107
0.0026733668 	-0.056643441 	-0.056572278 	0.89334107
0.0026934673 	-0.057995257 	-0.031579732 	0.88507493
0.0027135678 	-0.057995257 	-0.031579732 	0.88507493
0.0027336683 	-0.057825843 	-0.0074221978 	0.87764052
0.0027537688 	-0.057825843 	-0.0074221978 	0.87764052
0.0027738693 	-0.056456566 	0.014200883 	0.87137299
0.0027939698 	-0.056456566 	0.014200883 	0.87137299
0.0028140704 	-0.054086346 	0.032411916 	0.86654535
0.0028341709 	-0.054086346 	0.032411916 	0.86654535
0.0028542714 	-0.051232326 	0.046957374 	0.86317658
0.0028743719 	-0.048427851 	0.057936093 	0.86121666
0.0028944724 	-0.048427851 	0.057936093 	0.86121666
0.0029145729 	-0.046071329 	0.065684619 	0.86056215
0.0029346734 	-0.046071329 	0.065684619 	0.86056215
0.0029547739 	-0.044458662 	0.070681345 	0.86086238
0.0029748744 	-0.044458662 	0.070681345 	0.86086238
0.0029949749 	-0.043578533 	0.073420404 	0.86113074
0.0030150754 	-0.043187323 	0.07428045 	0.85960058
0.0030351759 	-0.043187323 	0.07428045 	0.85960058
0.0030552764 	-0.042892407 	0.07340448 	0.85421406
0.0030753769 	-0.042892407 	0.07340448 	0.85421406
0.0030954774 	-0.042264987 	0.070697977 	0.84363601
0.0031155779 	-0.040979722 	0.06596732 	0.8280649
0.0031356784 	-0.040979722 	0.06596732 	0.8280649
0.0031557789 	-0.038879994 	0.059131089 	0.80927372
0.0031758794 	-0.038879994 	0.059131089 	0.80927372
0.0031959799 	-0.035989725 	0.050351259 	0.78987101
0.0032160804 	-0.032460276 	0.040039753 	0.77231859
0.0032361809 	-0.032460276 	0.040039753 	0.77231859
0.0032562814 	-0.028491526 	0.028766889 	0.75823089
0.0032763819 	-0.02425672 	0.01715153 	0.74815176
0.0032964824 	-0.02425672 	0.01715153 	0.74815176
0.0033165829 	-0.01989644 	0.005741802 	0.74173124
0.0033366834 	-0.015495942 	-0.0049751696 	0.73807793
0.0033567839 	-0.015495942 	-0.0049751696 	0.73807793
0.0033768844 	-0.011121936 	-0.014617097 	0.73610008
0.0033969849 	-0.0068782262 	-0.02288579 	0.73479585
0.0034170854 	-0.0068782262 	-0.02288579 	0.73479585
0.0034371859 	-0.0028746256 	-0.029557903 	0.73340457
0.0034572864 	0.00077453409 	-0.034484005 	0.73143756
0.0034773869 	0.0039563373 	-0.037592619 	0.72863884
0.0034974874 	0.0039563373 	-0.037592619 	0.72863884
0.0035175879 	0.0065736902 	-0.038896845 	0.72490123
0.0035376884 	0.0085585435 	-0.03849767 	0.72015735
0.0035577889 	0.0098872371 	-0.036577459 	0.7142718
0.0035778894 	0.0098872371 	-0.036577459 	0.7142718
0.0035979899 	0.010586123 	-0.033387027 	0.70695083
0.0036180905 	0.010726047 	-0.029223046 	0.6976936
0.003638191 	0.010413379 	-0.02440003 	0.6858057
0.0036582915 	0.010413379 	-0.02440003 	0.6858057
0.003678392 	0.0097751734 	-0.019223139 	0.67048719
0.0036984925 	0.00893985 	-0.013968119 	0.65098276
0.003718593 	0.0080220799 	-0.0088768693 	0.62674615
0.0037386935 	0.007094652 	-0.0041585055 	0.59754485
0.003758794 	0.006192083 	1.8627091e-05 	0.56345618
0.0037788945 	0.006192083 	1.8627091e-05 	0.56345618
0.003798995 	0.0053302456 	0.0035325366 	0.52476593
0.0038190955 	0.0045087222 	0.0063212192 	0.48181531
0.003839196 	0.0037177536 	0.008377212 	0.43489924
0.0038592965 	0.0029504458 	0.0097177139 	0.38427156
0.003879397 	0.0022164913 	0.010348701 	0.3302348
0.0038994975 	0.0015393864 	0.010245358 	0.27324959
0.003919598 	0.00094999428 	0.0093627883 	0.21399345
0.0039396985 	0.00048081801 	0.0076698898 	0.15331907
0.003959799 	0.00016118348 	0.0051811221 	0.092091963
0.0039798995 	1.0261024e-05 	0.0019568644 	0.030887651
0.004 	1.0261024e-05 	0.0019568644 	0.030887651
