0 	0.0049257433 	-0.029113645 	1.0181586
5.5555556e-05 	0.024812509 	0.029434902 	1.0271215
0.00011111111 	0.020286488 	0.035061948 	1.0336977
0.00016666667 	0.017600594 	0.036564899 	1.040557
0.00022222222 	0.016193861 	0.035888329 	1.0465126
0.00027777778 	0.015995285 	0.034312844 	1.0505091
0.00033333333 	0.017030842 	0.032842585 	1.0520118
0.00038888889 	0.019250904 	0.032221222 	1.0510639
0.00044444444 	0.022404698 	0.032969841 	1.0481078
0.0005 	0.025942684 	0.035437045 	1.0438986
0.00055555556 	0.029071552 	0.039637181 	1.0394225
0.00061111111 	0.030948286 	0.044911085 	1.0355042
0.00066666667 	0.030978619 	0.049620067 	1.0322139
0.00072222222 	0.029161391 	0.051636543 	1.0288377
0.00077777778 	0.025885511 	0.04962019 	1.0246695
0.00083333333 	0.021717284 	0.043963059 	1.0193638
0.00088888889 	0.017463038 	0.036551712 	1.0119707
0.00094444444 	0.014460232 	0.029903885 	1.0002163
0.001 	0.013706727 	0.025977662 	0.98132245
0.0010617451 	0.01545983 	0.026767069 	0.9572832
0.0011226367 	0.0175738 	0.031435722 	0.93741732
0.0011826866 	0.018189642 	0.037975311 	0.92671391
0.0012419064 	0.017210757 	0.044865272 	0.92443317
0.0013003077 	0.015589065 	0.051626015 	0.92722426
0.0013579017 	0.014582552 	0.058418233 	0.93169586
0.0014146996 	0.01528368 	0.065213424 	0.93559261
0.0014707124 	0.018124736 	0.071416368 	0.93812877
0.0015259509 	0.022622273 	0.076221922 	0.93968078
0.001580426 	0.027833497 	0.079198034 	0.94085168
0.001634148 	0.032953246 	0.080504472 	0.94172339
0.0016871274 	0.037569882 	0.080460333 	0.94188257
0.0017393745 	0.04153984 	0.079232031 	0.94087883
0.0017908994 	0.044760676 	0.076800074 	0.93850471
0.0018417121 	0.047041317 	0.073068713 	0.9348386
0.0018918224 	0.048133071 	0.067899193 	0.93024106
0.0019412401 	0.047742694 	0.061134015 	0.92521147
0.0019899746 	0.045728614 	0.052758956 	0.92017232
0.0020380356 	0.042467982 	0.04320843 	0.91510868
0.0020854322 	0.038813492 	0.0337706 	0.9096011
0.0021321736 	0.03556687 	0.026309303 	0.9035949
0.002178269 	0.03278225 	0.021972954 	0.89794456
0.0022237272 	0.029909063 	0.020396523 	0.89381683
0.002268557 	0.026528481 	0.020346491 	0.89204377
0.0023127672 	0.022802397 	0.020672598 	0.89329341
0.0023563662 	0.019182916 	0.020558545 	0.89795018
0.0023993626 	0.016048426 	0.019708312 	0.90548894
0.0024417647 	0.013456349 	0.018086197 	0.91428063
0.0024835806 	0.011225114 	0.015655222 	0.92228953
0.0025248186 	0.0092302727 	0.012131014 	0.92806527
0.0025654865 	0.0074197062 	0.0070970073 	0.93103172
0.0026055923 	0.0059383311 	0.00031316734 	0.93115032
0.0026451437 	0.0051127931 	-0.0080812479 	0.92858963
0.0026841484 	0.0052123079 	-0.017594803 	0.92356736
0.002722614 	0.0063926546 	-0.027588347 	0.91629135
0.0027605478 	0.0086854337 	-0.037467729 	0.9069335
0.0027979573 	0.011963165 	-0.046786122 	0.89568185
0.0028348498 	0.015931997 	-0.055223051 	0.88291648
0.0028712322 	0.020220216 	-0.062509706 	0.86926786
0.0029071118 	0.024456576 	-0.068350277 	0.85545973
0.0029424953 	0.028323709 	-0.072423012 	0.84205133
0.0029773898 	0.031561101 	-0.074469317 	0.82918136
0.003011802 	0.034015721 	-0.07446182 	0.81642097
0.0030457385 	0.035733692 	-0.072680363 	0.80271327
0.0030792059 	0.037006839 	-0.069546653 	0.78651426
0.0031122107 	0.038261635 	-0.065258844 	0.76631264
0.0031447592 	0.039773485 	-0.05969827 	0.74155513
0.0031768579 	0.041397928 	-0.052857994 	0.71348715
0.0032085129 	0.042553121 	-0.045342494 	0.68516662
0.0032397303 	0.042488345 	-0.03837414 	0.66044027
0.0032705162 	0.040652296 	-0.033348798 	0.6425034
0.0033008765 	0.036943982 	-0.03136904 	0.63286706
0.0033308172 	0.031733237 	-0.032988368 	0.63110209
0.0033603441 	0.025688307 	-0.038116282 	0.63523691
0.0033894627 	0.019525771 	-0.046020663 	0.64248485
0.0034181789 	0.013782335 	-0.055472562 	0.65002901
0.0034464982 	0.0087211111 	-0.065035683 	0.65562739
0.003474426 	0.0043638248 	-0.073385943 	0.65782233
0.0035019678 	0.00067439054 	-0.079532464 	0.65562923
0.0035291288 	-0.002311015 	-0.082911035 	0.64794019
0.0035559144 	-0.0044162546 	-0.083365163 	0.63326357
0.0035823298 	-0.0053680961 	-0.081041451 	0.61027452
0.0036083801 	-0.0050460004 	-0.076255244 	0.57888225
0.0036340702 	-0.0036394212 	-0.069415004 	0.54088271
0.0036594053 	-0.0015776994 	-0.061035787 	0.49952145
0.0036843901 	0.0005703057 	-0.051777401 	0.45821764
0.0037090296 	0.0023830923 	-0.042416382 	0.41937188
0.0037333285 	0.0036825219 	-0.033727243 	0.38386972
0.0037572915 	0.0044120482 	-0.026329041 	0.35133538
0.0037809233 	0.0046445795 	-0.020574746 	0.32073613
0.0038042285 	0.0045020532 	-0.016522921 	0.29092404
0.0038272115 	0.0041053792 	-0.013981607 	0.26093855
0.0038498768 	0.0035525871 	-0.012588307 	0.2300924
0.0038722288 	0.0029139879 	-0.011891883 	0.19794441
0.0038942718 	0.0022374222 	-0.011415881 	0.16425044
0.0039160102 	0.0015583743 	-0.010695699 	0.12894719
0.003937448 	0.00091709101 	-0.009290995 	0.092207636
0.0039585896 	0.00037924172 	-0.0067865036 	0.054605207
0.0039794389 	4.4757449e-05 	-0.0028181447 	0.017400715
0.004 	-3.8281695e-06 	-0.0026156908 	0.016292583
