0 	-0.0026061528 	0.013913194 	1.0949738
2.0100503e-05 	0.013160207 	0.004286883 	1.0958109
4.0201005e-05 	0.013160207 	0.004286883 	1.0958109
6.0301508e-05 	0.012798649 	-0.00055066252 	1.0968924
8.040201e-05 	0.012798649 	-0.00055066252 	1.0968924
0.00010050251 	0.012798649 	-0.00055066252 	1.0968924
0.00012060302 	0.01124835 	-0.00087879238 	1.0979274
0.00014070352 	0.01124835 	-0.00087879238 	1.0979274
0.00016080402 	0.01124835 	-0.00087879238 	1.0979274
0.00018090452 	0.0095491673 	-0.00052869547 	1.0986819
0.00020100503 	0.0095491673 	-0.00052869547 	1.0986819
0.00022110553 	0.0095491673 	-0.00052869547 	1.0986819
0.00024120603 	0.0079679071 	-8.2779381e-05 	1.099028
0.00026130653 	0.0079679071 	-8.2779381e-05 	1.099028
0.00028140704 	0.0067603185 	0.00052538342 	1.0988535
0.00030150754 	0.0067603185 	0.00052538342 	1.0988535
0.00032160804 	0.0067603185 	0.00052538342 	1.0988535
0.00034170854 	0.0061781447 	0.0016290733 	1.0979352
0.00036180905 	0.0061781447 	0.0016290733 	1.0979352
0.00038190955 	0.0061781447 	0.0016290733 	1.0979352
0.00040201005 	0.0064269993 	0.0037251216 	1.09592
0.00042211055 	0.0064269993 	0.0037251216 	1.09592
0.00044221106 	0.0064269993 	0.0037251216 	1.09592
0.00046231156 	0.0076134733 	0.0073908193 	1.0923806
0.00048241206 	0.0076134733 	0.0073908193 	1.0923806
0.00050251256 	0.00970059 	0.013079207 	1.0869634
0.00052261307 	0.00970059 	0.013079207 	1.0869634
0.00054271357 	0.00970059 	0.013079207 	1.0869634
0.00056281407 	0.012436656 	0.021010166 	1.0795882
0.00058291457 	0.012436656 	0.021010166 	1.0795882
0.00060301508 	0.012436656 	0.021010166 	1.0795882
0.00062311558 	0.017814446 	0.029739539 	1.0778023
0.00064321608 	0.017814446 	0.029739539 	1.0778023
0.00066331658 	0.017814446 	0.029739539 	1.0778023
0.00068341709 	0.020782784 	0.040797048 	1.0674468
0.00070351759 	0.020782784 	0.040797048 	1.0674468
0.00072361809 	0.022942756 	0.053067101 	1.0565393
0.00074371859 	0.022942756 	0.053067101 	1.0565393
0.0007638191 	0.022942756 	0.053067101 	1.0565393
0.0007839196 	0.023585242 	0.065459774 	1.0460749
0.0008040201 	0.023585242 	0.065459774 	1.0460749
0.0008241206 	0.023585242 	0.065459774 	1.0460749
0.00084422111 	0.022451331 	0.07697113 	1.0363108
0.00086432161 	0.022451331 	0.07697113 	1.0363108
0.00088442211 	0.022451331 	0.07697113 	1.0363108
0.00090452261 	0.0197571 	0.086967324 	1.0268764
0.00092462312 	0.0197571 	0.086967324 	1.0268764
0.00094472362 	0.016103109 	0.094897505 	1.0175903
0.00096482412 	0.016103109 	0.094897505 	1.0175903
0.00098492462 	0.016103109 	0.094897505 	1.0175903
0.0010050251 	0.011883641 	0.10122253 	1.0086357
0.0010251256 	0.011883641 	0.10122253 	1.0086357
0.0010452261 	0.0046087992 	0.09852483 	1.0058433
0.0010653266 	0.000304083 	0.10302357 	1.0007201
0.0010854271 	0.000304083 	0.10302357 	1.0007201
0.0011055276 	0.000304083 	0.10302357 	1.0007201
0.0011256281 	-0.0031556263 	0.10578565 	0.99938143
0.0011457286 	-0.0031556263 	0.10578565 	0.99938143
0.0011658291 	0.0037578218 	0.10800848 	0.99920795
0.0011859296 	0.00065321726 	0.10873226 	0.99975887
0.0012060302 	-0.0056212968 	0.10698208 	1.0009024
0.0012261307 	-0.0056212968 	0.10698208 	1.0009024
0.0012462312 	-0.0070262609 	0.10674665 	1.0040424
0.0012663317 	-0.0070262609 	0.10674665 	1.0040424
0.0012864322 	-0.0070262609 	0.10674665 	1.0040424
0.0013065327 	-0.0074724644 	0.10528438 	1.0078067
0.0013266332 	-0.0074724644 	0.10528438 	1.0078067
0.0013467337 	-0.0074724644 	0.10528438 	1.0078067
0.0013668342 	-0.0071076959 	0.1027986 	1.0114969
0.0013869347 	-0.0071076959 	0.1027986 	1.0114969
0.0014070352 	-0.0071076959 	0.1027986 	1.0114969
0.0014271357 	-0.006028591 	0.099422626 	1.0146269
0.0014472362 	-0.006028591 	0.099422626 	1.0146269
0.0014673367 	-0.006028591 	0.099422626 	1.0146269
0.0014874372 	-0.0042972165 	0.095265697 	1.0168524
0.0015075377 	-0.0042972165 	0.095265697 	1.0168524
0.0015276382 	-0.0019590361 	0.090446585 	1.0179388
0.0015477387 	-0.0019590361 	0.090446585 	1.0179388
0.0015678392 	-0.0019590361 	0.090446585 	1.0179388
0.0015879397 	0.00088903938 	0.085093361 	1.0177665
0.0016080402 	0.00088903938 	0.085093361 	1.0177665
0.0016281407 	0.00088903938 	0.085093361 	1.0177665
0.0016482412 	0.0040581394 	0.079376451 	1.0163333
0.0016683417 	0.0040581394 	0.079376451 	1.0163333
0.0016884422 	0.0073081345 	0.073400655 	1.0137356
0.0017085427 	0.0073081345 	0.073400655 	1.0137356
0.0017286432 	0.0073081345 	0.073400655 	1.0137356
0.0017487437 	0.010385335 	0.067175928 	1.0101199
0.0017688442 	0.010385335 	0.067175928 	1.0101199
0.0017889447 	0.010385335 	0.067175928 	1.0101199
0.0018090452 	0.013031182 	0.060668748 	1.0056522
0.0018291457 	0.013031182 	0.060668748 	1.0056522
0.0018492462 	0.015128255 	0.053846678 	1.0004692
0.0018693467 	0.015128255 	0.053846678 	1.0004692
0.0018894472 	0.015128255 	0.053846678 	1.0004692
0.0019095477 	0.016732652 	0.046777299 	0.99470452
0.0019296482 	0.016732652 	0.046777299 	0.99470452
0.0019497487 	0.017982164 	0.039682837 	0.98844293
0.0019698492 	0.017982164 	0.039682837 	0.98844293
0.0019899497 	0.019054294 	0.032804912 	0.98185306
0.0020100503 	0.019054294 	0.032804912 	0.98185306
0.0020301508 	0.019054294 	0.032804912 	0.98185306
0.0020502513 	0.020049685 	0.026261135 	0.97517666
0.0020703518 	0.020049685 	0.026261135 	0.97517666
0.0020904523 	0.020929419 	0.020032797 	0.96873254
0.0021105528 	0.020929419 	0.020032797 	0.96873254
0.0021306533 	0.020929419 	0.020032797 	0.96873254
0.0021507538 	0.021537315 	0.014041521 	0.96277177
0.0021708543 	0.021537315 	0.014041521 	0.96277177
0.0021909548 	0.021611793 	0.0081962716 	0.9573268
0.0022110553 	0.021611793 	0.0081962716 	0.9573268
0.0022311558 	0.020950982 	0.0023270917 	0.95224239
0.0022512563 	0.020950982 	0.0023270917 	0.95224239
0.0022713568 	0.019502081 	-0.0038527539 	0.94739243
0.0022914573 	0.019502081 	-0.0038527539 	0.94739243
0.0023115578 	0.019502081 	-0.0038527539 	0.94739243
0.0023316583 	0.01733909 	-0.010631653 	0.94284111
0.0023517588 	0.01733909 	-0.010631653 	0.94284111
0.0023718593 	0.014663424 	-0.018010295 	0.93882887
0.0023919598 	0.014663424 	-0.018010295 	0.93882887
0.0024120603 	0.011726706 	-0.025559404 	0.93570694
0.0024321608 	0.011726706 	-0.025559404 	0.93570694
0.0024522613 	0.0087934704 	-0.032595917 	0.93383493
0.0024723618 	0.0087934704 	-0.032595917 	0.93383493
0.0024924623 	0.0062164554 	-0.038520866 	0.93326361
0.0025125628 	0.0062164554 	-0.038520866 	0.93326361
0.0025326633 	0.0045879499 	-0.042976155 	0.93346199
0.0025527638 	0.0045879499 	-0.042976155 	0.93346199
0.0025728643 	0.0045152965 	-0.045704116 	0.93369401
0.0025929648 	0.0045152965 	-0.045704116 	0.93369401
0.0026130653 	0.0062776 	-0.046339635 	0.93365433
0.0026331658 	0.0062776 	-0.046339635 	0.93365433
0.0026532663 	0.009600335 	-0.04456672 	0.9336666
0.0026733668 	0.009600335 	-0.04456672 	0.9336666
0.0026934673 	0.013850755 	-0.040344194 	0.93421069
0.0027135678 	0.013850755 	-0.040344194 	0.93421069
0.0027336683 	0.018348849 	-0.034102541 	0.93554645
0.0027537688 	0.018348849 	-0.034102541 	0.93554645
0.0027738693 	0.022417886 	-0.026617105 	0.93775231
0.0027939698 	0.022417886 	-0.026617105 	0.93775231
0.0028140704 	0.025522082 	-0.018757018 	0.94089268
0.0028341709 	0.025522082 	-0.018757018 	0.94089268
0.0028542714 	0.027338558 	-0.01129871 	0.944939
0.0028743719 	0.027823436 	-0.0048331911 	0.94963596
0.0028944724 	0.027823436 	-0.0048331911 	0.94963596
0.0029145729 	0.027151868 	0.00028419043 	0.95458204
0.0029346734 	0.027151868 	0.00028419043 	0.95458204
0.0029547739 	0.025598952 	0.0039548298 	0.95941704
0.0029748744 	0.025598952 	0.0039548298 	0.95941704
0.0029949749 	0.023492565 	0.0063004663 	0.96379537
0.0030150754 	0.021153933 	0.0076776042 	0.96727106
0.0030351759 	0.021153933 	0.0076776042 	0.96727106
0.0030552764 	0.018853997 	0.0086271384 	0.96925797
0.0030753769 	0.018853997 	0.0086271384 	0.96925797
0.0030954774 	0.016729887 	0.0097016075 	0.9693087
0.0031155779 	0.014829987 	0.011219048 	0.96751456
0.0031356784 	0.014829987 	0.011219048 	0.96751456
0.0031557789 	0.013160315 	0.013150404 	0.96470361
0.0031758794 	0.013160315 	0.013150404 	0.96470361
0.0031959799 	0.011690057 	0.015305805 	0.96196437
0.0032160804 	0.010321388 	0.017740873 	0.95963186
0.0032361809 	0.010321388 	0.017740873 	0.95963186
0.0032562814 	0.0089237725 	0.021009099 	0.95634173
0.0032763819 	0.007386304 	0.025873001 	0.94902984
0.0032964824 	0.007386304 	0.025873001 	0.94902984
0.0033165829 	0.005711997 	0.032410175 	0.93426636
0.0033366834 	0.0039465027 	0.039206922 	0.91017191
0.0033567839 	0.0039465027 	0.039206922 	0.91017191
0.0033768844 	0.0022146328 	0.043597103 	0.87769002
0.0033969849 	0.00065926824 	0.042928146 	0.84026499
0.0034170854 	0.00065926824 	0.042928146 	0.84026499
0.0034371859 	-0.00066175911 	0.035800408 	0.80226713
0.0034572864 	-0.001730726 	0.022515569 	0.76704628
0.0034773869 	-0.0025199548 	0.0049446029 	0.73564607
0.0034974874 	-0.0025199548 	0.0049446029 	0.73564607
0.0035175879 	-0.0028822642 	-0.014009863 	0.70685633
0.0035376884 	-0.0027649759 	-0.031085609 	0.67860675
0.0035577889 	-0.0023293174 	-0.043498009 	0.64967075
0.0035778894 	-0.0023293174 	-0.043498009 	0.64967075
0.0035979899 	-0.0018297317 	-0.049688423 	0.62021887
0.0036180905 	-0.0015422532 	-0.049600131 	0.59103217
0.003638191 	-0.0016352877 	-0.04445528 	0.56234515
0.0036582915 	-0.0016352877 	-0.04445528 	0.56234515
0.003678392 	-0.0020775635 	-0.036254585 	0.53346334
0.0036984925 	-0.0026837567 	-0.027130059 	0.50320744
0.003718593 	-0.0032543352 	-0.018746573 	0.47059467
0.0037386935 	-0.0036269754 	-0.012010905 	0.43524372
0.003758794 	-0.003714841 	-0.0071617967 	0.39742216
0.0037788945 	-0.003714841 	-0.0071617967 	0.39742216
0.003798995 	-0.0035204294 	-0.0040393192 	0.35785858
0.0038190955 	-0.0031202699 	-0.0023154214 	0.3174733
0.003839196 	-0.0026248756 	-0.0016229281 	0.27710487
0.0038592965 	-0.0021330914 	-0.0016140742 	0.2373215
0.003879397 	-0.0016997555 	-0.0019885146 	0.19837181
0.0038994975 	-0.0013328584 	-0.0024988302 	0.16027347
0.003919598 	-0.0010104397 	-0.0029218962 	0.12297971
0.0039396985 	-0.00069687991 	-0.0030076058 	0.086544944
0.003959799 	-0.00037641137 	-0.0024398887 	0.051179097
0.0039798995 	-7.3572555e-05 	-0.00096264901 	0.017007446
0.004 	-7.3572555e-05 	-0.00096264901 	0.017007446
