0 	-0.0069015927 	-0.024468866 	1.0214514
5.5555625e-05 	0.0072388745 	-0.025872531 	1.0233514
0.00011111111 	0.013171347 	-0.024532142 	1.0252686
0.00016666667 	0.017383266 	-0.022512619 	1.0271575
0.00022222222 	0.020923875 	-0.019799052 	1.0289547
0.00027777778 	0.024034246 	-0.016454106 	1.0305826
0.00033333333 	0.026742281 	-0.012641676 	1.0319767
0.00038888889 	0.028995288 	-0.0085927067 	1.0331125
0.00044444444 	0.030714464 	-0.0045578334 	1.0340034
0.0005 	0.031830261 	-0.00075945527 	1.0346717
0.00055555556 	0.032309551 	0.0026434914 	1.0351122
0.00061111111 	0.032159801 	0.0055742985 	1.0352746
0.00066666667 	0.031423235 	0.0080436434 	1.0350672
0.00072222222 	0.030171023 	0.010141153 	1.0343773
0.00077777778 	0.028498861 	0.012012437 	1.0330883
0.00083333333 	0.026500694 	0.013812454 	1.0310983
0.00088888889 	0.02429743 	0.015664226 	1.0283333
0.00094444444 	0.022029286 	0.01755114 	1.0247722
0.001 	0.019623564 	0.019513776 	1.0201689
0.0010617451 	0.017381877 	0.02115493 	1.0146715
0.0011226367 	0.01555835 	0.021965234 	1.0088848
0.0011826866 	0.014231889 	0.021700653 	1.0031702
0.0012419064 	0.013309505 	0.020390474 	0.99780796
0.0013003077 	0.012527576 	0.018367648 	0.99291648
0.0013579017 	0.011476537 	0.016208919 	0.98839634
0.0014146996 	0.0096361031 	0.014647781 	0.983944
0.0014707124 	0.0064145052 	0.01444978 	0.97921235
0.0015259509 	0.0012169717 	0.016178581 	0.97410657
0.001580426 	-0.0063147302 	0.019753004 	0.96894753
0.001634148 	-0.015887606 	0.023950713 	0.96396583
0.0016871274 	-0.026155068 	0.026391267 	0.95809356
0.0017393745 	-0.034745923 	0.024271777 	0.94821137
0.0017908994 	-0.038971022 	0.015677503 	0.93012715
0.0018417121 	-0.037070136 	0.00082385161 	0.90134842
0.0018918224 	-0.02937905 	-0.017479363 	0.86458826
0.0019412401 	-0.018755443 	-0.035147063 	0.82788568
0.0019899746 	-0.0088088356 	-0.048866694 	0.79880009
0.0020380356 	-0.0016339525 	-0.057556447 	0.77997352
0.0020854322 	0.0024985107 	-0.061735426 	0.77027112
0.0021321736 	0.0043620942 	-0.062494497 	0.76733916
0.002178269 	0.0048656849 	-0.060916728 	0.76887479
0.0022237272 	0.0047418459 	-0.057845162 	0.77319672
0.002268557 	0.0045690061 	-0.053893149 	0.77925656
0.0023127672 	0.0047513582 	-0.049449193 	0.78649497
0.0023563662 	0.0055458262 	-0.044728233 	0.79469947
0.0023993626 	0.0070880298 	-0.03983388 	0.80386603
0.0024417647 	0.009404795 	-0.034825547 	0.81407033
0.0024835806 	0.012439061 	-0.029779729 	0.8253335
0.0025248186 	0.016043739 	-0.024810318 	0.83749755
0.0025654865 	0.019985307 	-0.020091622 	0.85015186
0.0026055923 	0.023968501 	-0.015823195 	0.86266386
0.0026451437 	0.027676809 	-0.012195227 	0.87432617
0.0026841484 	0.030821851 	-0.0093622554 	0.8845387
0.002722614 	0.033179532 	-0.0074549619 	0.89293431
0.0027605478 	0.034603808 	-0.006605069 	0.89940739
0.0027979573 	0.035024214 	-0.0069571013 	0.90406583
0.0028348498 	0.034441515 	-0.0086375678 	0.90714386
0.0028712322 	0.032917834 	-0.011677305 	0.90890319
0.0029071118 	0.03056897 	-0.015902078 	0.90956293
0.0029424953 	0.027568702 	-0.02085271 	0.90928104
0.0029773898 	0.024155727 	-0.025812942 	0.90818148
0.003011802 	0.020623859 	-0.029959561 	0.90638219
0.0030457385 	0.017284836 	-0.032576123 	0.90397976
0.0030792059 	0.014407122 	-0.033231052 	0.9010157
0.0031122107 	0.012162158 	-0.031851452 	0.89746662
0.0031447592 	0.010611292 	-0.028678512 	0.89328064
0.0031768579 	0.0097268733 	-0.024134414 	0.88843166
0.0032085129 	0.0094246621 	-0.018662566 	0.88295051
0.0032397303 	0.0095827791 	-0.012602506 	0.87692333
0.0032705162 	0.010044175 	-0.0061326284 	0.87047075
0.0033008765 	0.010658148 	0.00072646108 	0.86372838
0.0033308172 	0.011288173 	0.0080716307 	0.85681893
0.0033603441 	0.011783535 	0.016042463 	0.84983738
0.0033894627 	0.01203156 	0.024780421 	0.84281584
0.0034181789 	0.011974854 	0.034318293 	0.83567897
0.0034464982 	0.011586312 	0.044509393 	0.82816665
0.003474426 	0.010864469 	0.054967537 	0.81972821
0.0035019678 	0.0098282534 	0.065033148 	0.80943218
0.0035291288 	0.0085190574 	0.07379776 	0.79600864
0.0035559144 	0.0069922766 	0.080163044 	0.77817385
0.0035823298 	0.0053128128 	0.082987818 	0.75525519
0.0036083801 	0.0035236169 	0.081305253 	0.7277791
0.0036340702 	0.0016419288 	0.07459862 	0.69754445
0.0036594053 	-0.00032123426 	0.063049539 	0.66687934
0.0036843901 	-0.0023279659 	0.047627957 	0.63748899
0.0037090296 	-0.0042973573 	0.029957004 	0.60962376
0.0037333285 	-0.00611631 	0.011972556 	0.58208089
0.0037572915 	-0.0076320081 	-0.0044579276 	0.55292727
0.0037809233 	-0.008652497 	-0.017818438 	0.52041574
0.0038042285 	-0.0090246708 	-0.027119831 	0.48366087
0.0038272115 	-0.0087216539 	-0.031901256 	0.44263351
0.0038498768 	-0.0078217335 	-0.032243425 	0.39778817
0.0038722288 	-0.0064887229 	-0.028793509 	0.34942165
0.0038942718 	-0.0049398055 	-0.022722448 	0.29723352
0.0039160102 	-0.003386862 	-0.01552892 	0.24039104
0.003937448 	-0.0019871541 	-0.00870074 	0.17806903
0.0039585896 	-0.00085847177 	-0.0033830688 	0.11014785
0.0039794389 	-0.00012220872 	-0.00026540402 	0.037664289
0.004 	-2.4856047e-05 	0.0044634286 	0.035897973
