0 	-0.007580872 	-0.050711191 	1.0733551
5.5555625e-05 	0.016588246 	-0.04652583 	1.0700965
0.00011111111 	0.022222475 	-0.041114311 	1.0667355
0.00016666667 	0.023739491 	-0.035872895 	1.0631969
0.00022222222 	0.023422316 	-0.030052856 	1.0595452
0.00027777778 	0.022065054 	-0.023364184 	1.0560707
0.00033333333 	0.02020978 	-0.015809741 	1.053223
0.00038888889 	0.018295514 	-0.0075578687 	1.0514006
0.00044444444 	0.016581816 	0.0011765342 	1.0507472
0.0005 	0.01509098 	0.010216209 	1.0511153
0.00055555556 	0.013620041 	0.019423676 	1.0522597
0.00061111111 	0.011852264 	0.028661572 	1.0541035
0.00066666667 	0.009533061 	0.037621424 	1.0566373
0.00072222222 	0.0065617914 	0.045589585 	1.0592274
0.00077777778 	0.0029988711 	0.051376714 	1.0600675
0.00083333333 	-0.0010324713 	0.053380083 	1.0568097
0.00088888889 	-0.0052367451 	0.049576999 	1.0480183
0.00094444444 	-0.0089327129 	0.037169362 	1.0333334
0.001 	-0.010775353 	0.012048794 	1.0106192
0.0010617451 	-0.010431482 	-0.023913553 	0.98051439
0.0011226367 	-0.014414426 	-0.05152942 	0.95798128
0.0011826866 	-0.022977497 	-0.060989429 	0.95073755
0.0012419064 	-0.031041264 	-0.056343063 	0.95383342
0.0013003077 	-0.035877114 	-0.04238564 	0.96067378
0.0013579017 	-0.037179628 	-0.022750885 	0.96817111
0.0014146996 	-0.036203719 	-0.0021160913 	0.97592559
0.0014707124 	-0.034711253 	0.01429509 	0.98353733
0.0015259509 	-0.033924955 	0.024069872 	0.98893663
0.001580426 	-0.034019442 	0.028743147 	0.98986641
0.001634148 	-0.034364066 	0.0318052 	0.98573131
0.0016871274 	-0.034015372 	0.036098434 	0.97730336
0.0017393745 	-0.032294383 	0.042840915 	0.96585014
0.0017908994 	-0.029117049 	0.051778211 	0.95281787
0.0018417121 	-0.025036778 	0.061679257 	0.93984986
0.0018918224 	-0.021122414 	0.070943908 	0.92877885
0.0019412401 	-0.018675297 	0.078303658 	0.92139038
0.0019899746 	-0.018727329 	0.083434496 	0.91881903
0.0020380356 	-0.021428552 	0.087095989 	0.9207636
0.0020854322 	-0.025759257 	0.090613832 	0.92523585
0.0021321736 	-0.030019213 	0.095107487 	0.92943784
0.002178269 	-0.032661064 	0.10095325 	0.93118959
0.0022237272 	-0.032908617 	0.10780547 	0.92964002
0.002268557 	-0.030765226 	0.11491276 	0.92494197
0.0023127672 	-0.026693015 	0.12125658 	0.91763837
0.0023563662 	-0.021393009 	0.1256706 	0.90817313
0.0023993626 	-0.015720127 	0.12718561 	0.89696651
0.0024417647 	-0.010537688 	0.12543781 	0.88475074
0.0024835806 	-0.006539426 	0.12068828 	0.87248062
0.0025248186 	-0.004149749 	0.11349798 	0.86089622
0.0025654865 	-0.0034838574 	0.1044309 	0.85030985
0.0026055923 	-0.0044423316 	0.093962363 	0.84067207
0.0026451437 	-0.0067945743 	0.082514222 	0.83171886
0.0026841484 	-0.01024249 	0.070527935 	0.82326286
0.002722614 	-0.014421646 	0.058466399 	0.81545588
0.0027605478 	-0.019020909 	0.046745147 	0.80851392
0.0027979573 	-0.02391769 	0.03563224 	0.8023342
0.0028348498 	-0.02916585 	0.025275904 	0.79676323
0.0028712322 	-0.034859053 	0.015804184 	0.79211044
0.0029071118 	-0.041037158 	0.0073322056 	0.78874716
0.0029424953 	-0.047516037 	-0.00017469431 	0.78641926
0.0029773898 	-0.053873472 	-0.0068309986 	0.78416414
0.003011802 	-0.059627318 	-0.012799978 	0.780788
0.0030457385 	-0.064405045 	-0.018190896 	0.7754686
0.0030792059 	-0.068010731 	-0.023030763 	0.76788986
0.0031122107 	-0.07035193 	-0.027308854 	0.75814701
0.0031447592 	-0.071453952 	-0.031001778 	0.74659646
0.0031768579 	-0.071403086 	-0.034106863 	0.73372809
0.0032085129 	-0.070309309 	-0.036625351 	0.72004456
0.0032397303 	-0.068283705 	-0.038568358 	0.70597598
0.0032705162 	-0.065420953 	-0.039942406 	0.691843
0.0033008765 	-0.061799119 	-0.040744283 	0.67785051
0.0033308172 	-0.057493912 	-0.040963054 	0.66409558
0.0033603441 	-0.052591694 	-0.040588805 	0.65059376
0.0033894627 	-0.047197133 	-0.039623608 	0.63730965
0.0034181789 	-0.041436273 	-0.038090469 	0.6241846
0.0034464982 	-0.035453973 	-0.036040718 	0.61115432
0.003474426 	-0.029407879 	-0.033554591 	0.59815765
0.0035019678 	-0.023461005 	-0.030734487 	0.58513206
0.0035291288 	-0.017772287 	-0.027711706 	0.57200712
0.0035559144 	-0.012491035 	-0.024635611 	0.55868119
0.0035823298 	-0.0077472279 	-0.021661545 	0.54499999
0.0036083801 	-0.0036534476 	-0.018937943 	0.53073356
0.0036340702 	-0.00031705397 	-0.01658943 	0.51555454
0.0036594053 	0.0022012224 	-0.014699041 	0.49899634
0.0036843901 	0.003918189 	-0.01328724 	0.48051275
0.0037090296 	0.0048856668 	-0.012300664 	0.45949553
0.0037333285 	0.0051957956 	-0.011617081 	0.43540022
0.0037572915 	0.0049952521 	-0.011069896 	0.40786801
0.0037809233 	0.0044581269 	-0.010489953 	0.37683105
0.0038042285 	0.0037556308 	-0.0097451744 	0.34254397
0.0038272115 	0.0030277607 	-0.0087624944 	0.30552589
0.0038498768 	0.0023651174 	-0.0075304211 	0.26644185
0.0038722288 	0.0018057679 	-0.0060921914 	0.22597248
0.0038942718 	0.0013452892 	-0.0045400572 	0.18471361
0.0039160102 	0.00095720341 	-0.0030097052 	0.14313021
0.003937448 	0.00060862879 	-0.001666721 	0.10157158
0.0039585896 	0.00029203827 	-0.00067237385 	0.060343881
0.0039794389 	4.7421416e-05 	-0.00011542631 	0.0198092
0.004 	5.1344468e-06 	-0.00093798574 	0.018266618
