0 	-0.040402019 	0.025148293 	1.0697974
5.5555556e-05 	-0.047291249 	-0.0016489245 	1.0696625
0.00011111111 	-0.045405855 	-0.013104561 	1.0680592
0.00016666667 	-0.042521843 	-0.020446732 	1.0645326
0.00022222222 	-0.039210975 	-0.025688046 	1.0588765
0.00027777778 	-0.035661365 	-0.029417974 	1.0511661
0.00033333333 	-0.03206174 	-0.031890571 	1.0417131
0.00038888889 	-0.028596261 	-0.033299875 	1.0309602
0.00044444444 	-0.02544235 	-0.033849298 	1.0193826
0.0005 	-0.022771567 	-0.033761171 	1.0074575
0.00055555556 	-0.020768545 	-0.03323414 	0.99571116
0.00061111111 	-0.019662395 	-0.032389017 	0.98475502
0.00066666667 	-0.019719707 	-0.031275774 	0.9752129
0.00072222222 	-0.021137713 	-0.029925926 	0.96751878
0.00077777778 	-0.023889139 	-0.028379688 	0.96172665
0.00083333333 	-0.027643142 	-0.026545517 	0.95755734
0.00088888889 	-0.03182832 	-0.024106639 	0.9547118
0.00094444444 	-0.035765495 	-0.020666492 	0.9531432
0.001 	-0.039177796 	-0.015821802 	0.95297952
0.0010617199 	-0.041896278 	-0.0098933246 	0.95441515
0.0011225874 	-0.043542898 	-0.0042373004 	0.95722454
0.0011826143 	-0.044631549 	0.0001253625 	0.96049297
0.0012418122 	-0.045401123 	0.002775401 	0.96326542
0.0013001926 	-0.045904826 	0.0037487326 	0.96461925
0.0013577668 	-0.045876164 	0.0033568508 	0.96381034
0.0014145458 	-0.044970806 	0.0020105544 	0.96043347
0.0014705407 	-0.043053464 	0.00022046591 	0.95458402
0.0015257623 	-0.040309369 	-0.0013292769 	0.94689539
0.0015802213 	-0.037240851 	-0.0018951828 	0.93841308
0.0016339282 	-0.034429925 	-0.00093082282 	0.93031617
0.0016868934 	-0.032380532 	0.0016035633 	0.9237046
0.0017391271 	-0.031463005 	0.0053179805 	0.91944307
0.0017906395 	-0.031823817 	0.0095572535 	0.91802673
0.0018414404 	-0.033433336 	0.013758718 	0.91944188
0.0018915398 	-0.036187289 	0.017603233 	0.92322401
0.0019409473 	-0.039910517 	0.021022174 	0.92850923
0.0019896725 	-0.044204717 	0.024038465 	0.93407691
0.0020377248 	-0.048348799 	0.026646182 	0.93849015
0.0020851134 	-0.051479127 	0.028612483 	0.94036412
0.0021318476 	-0.052712884 	0.029457864 	0.93873772
0.0021779364 	-0.051380789 	0.028695169 	0.93340677
0.0022233887 	-0.047210852 	0.026157081 	0.9250402
0.0022682133 	-0.040353082 	0.022098195 	0.91495204
0.0023124189 	-0.031330982 	0.017016048 	0.90462383
0.0023560139 	-0.020753486 	0.011336016 	0.89517267
0.0023990069 	-0.0091048722 	0.0051795463 	0.88694586
0.0024414062 	0.0034949536 	-0.001539436 	0.87961861
0.0024832199 	0.016975327 	-0.008850792 	0.87273977
0.0025244562 	0.031034303 	-0.01649724 	0.86623793
0.002565123 	0.045250501 	-0.02401753 	0.86047592
0.0026052281 	0.059056421 	-0.030895562 	0.85605556
0.0026447794 	0.071894653 	-0.036722145 	0.85351838
0.0026837845 	0.083348338 	-0.041220103 	0.8531194
0.0027222509 	0.093169703 	-0.044257323 	0.8547158
0.0027601861 	0.10129608 	-0.045865364 	0.85780924
0.0027975974 	0.10787666 	-0.046164636 	0.86171417
0.002834492 	0.11315889 	-0.04531291 	0.86568781
0.0028708772 	0.1174145 	-0.043474306 	0.86903041
0.0029067598 	0.12086451 	-0.040781361 	0.87114257
0.0029421469 	0.12357206 	-0.037299086 	0.87160946
0.0029770452 	0.12533931 	-0.032960507 	0.87032146
0.0030114616 	0.12576179 	-0.027618126 	0.86766288
0.0030454028 	0.12427304 	-0.021226831 	0.86453526
0.0030788752 	0.12032086 	-0.014008417 	0.86218357
0.0031118853 	0.11350637 	-0.0064667192 	0.86187219
0.0031444395 	0.10382359 	0.00053824379 	0.86449091
0.0031765442 	0.091773089 	0.0060316015 	0.87012931
0.0032082055 	0.078382617 	0.0091036067 	0.87777843
0.0032394295 	0.06503407 	0.0091592562 	0.88537178
0.0032702223 	0.053087677 	0.0060442453 	0.89030566
0.0033005899 	0.043612323 	0.00014216687 	0.89019245
0.0033305381 	0.036981118 	-0.0076473867 	0.88343983
0.0033600727 	0.032971909 	-0.016029599 	0.86950802
0.0033891994 	0.03090754 	-0.023500516 	0.84890459
0.0034179239 	0.029937612 	-0.02863004 	0.82287737
0.0034462517 	0.029271711 	-0.030375851 	0.79314668
0.0034741882 	0.028071779 	-0.028324808 	0.76170374
0.003501739 	0.025876083 	-0.022775189 	0.73053987
0.0035289093 	0.022699934 	-0.014591111 	0.70137209
0.0035557043 	0.018760512 	-0.0049129517 	0.6753512
0.0035821293 	0.014516626 	0.0051551718 	0.65291346
0.0036081894 	0.010450531 	0.014749892 	0.6338777
0.0036338895 	0.0070071393 	0.023320116 	0.61760954
0.0036592348 	0.0045604418 	0.030591324 	0.60318778
0.00368423 	0.0032600299 	0.036501552 	0.58955367
0.00370888 	0.0030478682 	0.041101787 	0.57557328
0.0037331896 	0.0036949109 	0.044506621 	0.56007207
0.0037571635 	0.0048878548 	0.046859562 	0.54186288
0.0037808063 	0.0062469304 	0.048318472 	0.51979658
0.0038041226 	0.0074158837 	0.049023069 	0.49281476
0.0038271169 	0.0081481475 	0.049025329 	0.45998779
0.0038497936 	0.0082697037 	0.048201856 	0.42058926
0.0038721572 	0.0077372739 	0.046211748 	0.37413987
0.0038942119 	0.0066088039 	0.042565066 	0.32044213
0.003915962 	0.005016413 	0.036805207 	0.25956371
0.0039374118 	0.0031769739 	0.028725131 	0.19182651
0.0039585653 	0.0014309369 	0.01849088 	0.11797284
0.0039794267 	0.00020672566 	0.0065743517 	0.039695471
0.004 	7.8839433e-05 	0.0032789864 	0.038505615
