0 	0.025068417 	0.028377181 	1.0050449
5.5555556e-05 	-0.031007544 	0.0042763697 	1.0119344
0.00011111111 	-0.028249593 	-0.0020541221 	1.0166097
0.00016666667 	-0.025500882 	-0.0059345208 	1.0211141
0.00022222222 	-0.023544515 	-0.0089055177 	1.0251027
0.00027777778 	-0.022606944 	-0.011338373 	1.0286652
0.00033333333 	-0.02265947 	-0.01326051 	1.0322251
0.00038888889 	-0.023483588 	-0.014512261 	1.036245
0.00044444444 	-0.024735414 	-0.014899047 	1.0409173
0.0005 	-0.026036315 	-0.014321181 	1.0460865
0.00055555556 	-0.027009039 	-0.012880037 	1.0513927
0.00061111111 	-0.027340638 	-0.010850585 	1.0564597
0.00066666667 	-0.026799149 	-0.0085402317 	1.0609871
0.00072222222 	-0.025268103 	-0.0062097776 	1.0647905
0.00077777778 	-0.022797947 	-0.0040607796 	1.0678157
0.00083333333 	-0.019576719 	-0.0022349206 	1.0701385
0.00088888889 	-0.015874896 	-0.00076297615 	1.0718609
0.00094444444 	-0.012028535 	0.00042913031 	1.073045
0.001 	-0.0079672016 	0.0014757525 	1.0736282
0.0010617451 	-0.0041238952 	0.0025493742 	1.0733427
0.0011226367 	-0.00091045902 	0.0036355428 	1.0721531
0.0011826866 	0.0014143864 	0.0046627291 	1.0702978
0.0012419064 	0.0026770466 	0.0054315387 	1.0682963
0.0013003077 	0.0028215855 	0.0056657612 	1.0666124
0.0013579017 	0.0020416323 	0.0049932693 	1.0652754
0.0014146996 	0.00073281868 	0.0030914936 	1.0638579
0.0014707124 	-0.00069269359 	-5.7292464e-05 	1.0619305
0.0015259509 	-0.001971995 	-0.004243421 	1.0595115
0.001580426 	-0.003021649 	-0.0091632557 	1.0569172
0.001634148 	-0.0038342908 	-0.014591649 	1.054307
0.0016871274 	-0.0044147086 	-0.020386056 	1.0515491
0.0017393745 	-0.0048312357 	-0.026405127 	1.0484693
0.0017908994 	-0.0052457249 	-0.032474569 	1.0450838
0.0018417121 	-0.0058570198 	-0.0383824 	1.041572
0.0018918224 	-0.0068192104 	-0.043883379 	1.0380908
0.0019412401 	-0.0081156457 	-0.048746594 	1.034604
0.0019899746 	-0.0095827661 	-0.052789518 	1.030847
0.0020380356 	-0.010931968 	-0.055928926 	1.0264155
0.0020854322 	-0.011750528 	-0.058130957 	1.0209034
0.0021321736 	-0.011673584 	-0.059395874 	1.0140302
0.002178269 	-0.010436254 	-0.05970468 	1.0057557
0.0022237272 	-0.0078886008 	-0.059001512 	0.99627838
0.002268557 	-0.0040562168 	-0.057238179 	0.98593551
0.0023127672 	0.00094000156 	-0.054417029 	0.97506637
0.0023563662 	0.0069006114 	-0.050616523 	0.96388498
0.0023993626 	0.013505728 	-0.046000522 	0.95254577
0.0024417647 	0.020352971 	-0.040797559 	0.94126904
0.0024835806 	0.027004885 	-0.035254826 	0.93037648
0.0025248186 	0.033058904 	-0.02957099 	0.92021457
0.0025654865 	0.038180358 	-0.023841666 	0.91105159
0.0026055923 	0.04216905 	-0.018044631 	0.90302768
0.0026451437 	0.045072665 	-0.012090414 	0.89610041
0.0026841484 	0.047013818 	-0.0058616108 	0.89008796
0.002722614 	0.04816011 	0.00077796911 	0.88474085
0.0027605478 	0.048733365 	0.0079376056 	0.87967478
0.0027979573 	0.048949069 	0.015648772 	0.87443917
0.0028348498 	0.049074953 	0.02382911 	0.86851954
0.0028712322 	0.0492978 	0.03222503 	0.86126467
0.0029071118 	0.049718494 	0.04040035 	0.85182671
0.0029424953 	0.050396806 	0.04767682 	0.83911924
0.0029773898 	0.051332428 	0.05324698 	0.82181071
0.003011802 	0.052459056 	0.05632331 	0.79856388
0.0030457385 	0.05362052 	0.056465873 	0.76851882
0.0030792059 	0.054551122 	0.053985288 	0.73193792
0.0031122107 	0.054878313 	0.050250942 	0.6906833
0.0031447592 	0.054206961 	0.047541518 	0.64808314
0.0031768579 	0.052277784 	0.04829433 	0.60800164
0.0032085129 	0.049111243 	0.054002612 	0.5735437
0.0032397303 	0.045010447 	0.064504741 	0.54616504
0.0032705162 	0.040406658 	0.078099464 	0.52566678
0.0033008765 	0.035653566 	0.092296179 	0.51090164
0.0033308172 	0.030877345 	0.10461954 	0.50064245
0.0033603441 	0.025968417 	0.11315667 	0.49411833
0.0033894627 	0.0207033 	0.116745 	0.49106778
0.0034181789 	0.01487731 	0.11487977 	0.4914545
0.0034464982 	0.0084057739 	0.10756001 	0.49509184
0.003474426 	0.0013519747 	0.095146473 	0.50137454
0.0035019678 	-0.0061032742 	0.078370313 	0.50924644
0.0035291288 	-0.013733249 	0.058395426 	0.51741167
0.0035559144 	-0.02132334 	0.036737008 	0.5246577
0.0035823298 	-0.028698914 	0.014950206 	0.53004625
0.0036083801 	-0.035658351 	-0.0057077374 	0.5329193
0.0036340702 	-0.041923877 	-0.02447418 	0.5329378
0.0036594053 	-0.0472247 	-0.041020139 	0.52967948
0.0036843901 	-0.051314532 	-0.055297403 	0.52245428
0.0037090296 	-0.053913014 	-0.067288035 	0.5102899
0.0037333285 	-0.054795554 	-0.076836306 	0.49201029
0.0037572915 	-0.053830553 	-0.083639558 	0.46650809
0.0037809233 	-0.050997129 	-0.087325311 	0.43315084
0.0038042285 	-0.046407515 	-0.087566933 	0.39215475
0.0038272115 	-0.040333639 	-0.084236895 	0.34474137
0.0038498768 	-0.033228732 	-0.07750443 	0.29301948
0.0038722288 	-0.025697242 	-0.067900303 	0.23963389
0.0038942718 	-0.018385577 	-0.056232634 	0.18723048
0.0039160102 	-0.01184691 	-0.043362868 	0.13788245
0.003937448 	-0.006468429 	-0.029995862 	0.092782154
0.0039585896 	-0.002521687 	-0.016743759 	0.052346589
0.0039794389 	-0.00028162088 	-0.0045853232 	0.016392391
0.004 	-8.4392462e-05 	0.0022973338 	0.012738219
