0 0.349131
0.0021 0.351032
0.004 0.352816
0.006 0.354625
0.008 0.356313
0.01 0.357818
0.02 0.361006
0.03 0.361148
0.04 0.363676
0.05 0.368411
0.06 0.37442
0.07 0.381157
0.08 0.388389
0.09 0.395894
0.1 0.40354
0.11 0.411292
0.12 0.419135
0.13 0.427049
0.14 0.435011
0.15 0.443028
0.16 0.451089
0.17 0.459228
0.18 0.46744
0.19 0.475697
0.2 0.483953
0.21 0.492216
0.22 0.500516
0.23 0.508861
0.24 0.517245
0.25 0.525668
0.26 0.534101
0.27 0.542527
0.28 0.550963
0.29 0.559407
0.3 0.567833
0.31 0.576286
0.32 0.584763
0.33 0.593204
0.34 0.601681
0.35 0.610194
0.36 0.618655
0.37 0.627116
0.38 0.63557
0.39 0.644007
0.4 0.652427
0.41 0.660859
0.42 0.669245
0.43 0.677626
0.44 0.685967
0.45 0.69433
0.46 0.702682
0.47 0.711003
0.48 0.719259
0.49 0.727491
0.5 0.735806
0.51 0.744143
0.52 0.752419
0.53 0.760605
0.54 0.768702
0.55 0.776805
0.56 0.784974
0.57 0.793076
0.58 0.801136
0.59 0.809151
0.6 0.817087
0.61 0.825056
0.62 0.833034
0.63 0.840906
0.64 0.848717
0.65 0.856524
0.66 0.864322
0.67 0.872142
0.68 0.879942
0.69 0.887637
0.7 0.895272
0.71 0.902833
0.72 0.910343
0.73 0.917833
0.74 0.925235
0.75 0.932646
0.76 0.939964
0.77 0.94725
0.78 0.954489
0.79 0.961673
0.8 0.9689
0.8 0.9689
0.81 0.97612
0.82 0.983303
0.83 0.990501
0.84 0.997668
0.85 1.00474
0.86 1.0117
0.87 1.01845
0.88 1.02524
0.89 1.03204
0.9 1.03883
0.91 1.04555
0.92 1.0522
0.93 1.05882
0.94 1.06542
0.95 1.07197
0.96 1.07841
0.97 1.08481
0.98 1.09116
0.99 1.09749
1 1.10383
1.01 1.11007
1.02 1.1162
1.03 1.12229
1.04 1.12839
1.05 1.13448
1.06 1.14054
1.07 1.14654
1.08 1.15244
1.09 1.15826
1.1 1.16405
1.11 1.16979
1.12 1.17544
1.13 1.18105
1.14 1.18652
1.15 1.19196
1.16 1.19744
1.17 1.20295
1.18 1.20834
1.19 1.21374
1.2 1.21909
1.21 1.22439
1.22 1.22969
1.23 1.23489
1.24 1.24005
1.25 1.24528
1.26 1.25047
1.27 1.25559
1.28 1.26058
1.29 1.26556
1.3 1.27063
1.31 1.27573
1.32 1.28072
1.33 1.28564
1.34 1.29038
1.35 1.29506
1.36 1.29964
1.37 1.30423
1.38 1.30867
1.39 1.31317
1.4 1.31773
1.41 1.32227
1.42 1.32683
1.43 1.33127
1.44 1.33561
1.45 1.33987
1.46 1.34405
1.47 1.34811
1.48 1.35221
1.49 1.35637
1.5 1.36051
1.51 1.36471
1.52 1.3688
1.53 1.3728
1.54 1.37675
1.55 1.38064
1.56 1.38447
1.57 1.38831
1.58 1.39206
1.59 1.3957
1.6 1.39936
1.61 1.40299
1.62 1.40668
1.63 1.41023
1.64 1.41366
1.65 1.4171
1.66 1.42056
1.67 1.42377
1.68 1.42694
1.69 1.43011
1.7 1.4332
1.71 1.43618
1.72 1.43927
1.73 1.44238
1.74 1.44545
1.75 1.44843
1.76 1.45144
1.77 1.45448
1.78 1.45745
1.79 1.46041
1.8 1.46336
1.81 1.46623
1.82 1.4689
1.83 1.4715
1.84 1.47406
1.85 1.47657
1.86 1.47898
1.87 1.48149
1.88 1.48414
1.89 1.48677
1.9 1.48922
1.91 1.49166
1.92 1.49409
1.93 1.49654
1.94 1.49907
1.95 1.50159
1.96 1.50405
1.97 1.50647
1.98 1.50877
1.99 1.51099
2 1.51323
2.01 1.51544
2.02 1.5177
2.03 1.51986
2.04 1.52206
2.05 1.52416
2.06 1.52625
2.07 1.52828
2.08 1.5303
2.09 1.53233
2.1 1.53428
2.11 1.53629
2.12 1.53837
2.13 1.54047
2.14 1.54262
2.15 1.54473
2.16 1.54688
2.17 1.54898
2.18 1.55075
2.19 1.55245
2.2 1.55415
2.21 1.55599
2.22 1.55787
2.23 1.55968
2.24 1.56139
2.25 1.56314
2.26 1.56479
2.27 1.56646
2.28 1.56813
2.29 1.56969
2.3 1.57125
2.31 1.57274
2.32 1.574
2.33 1.57545
2.34 1.57708
2.35 1.57853
2.36 1.57981
2.37 1.58119
2.38 1.58276
2.39 1.58437
2.4 1.58605
2.41 1.5875
2.42 1.58883
2.43 1.59005
2.44 1.5912
2.45 1.59246
2.46 1.59374
2.47 1.59512
2.48 1.59642
2.49 1.59765
2.5 1.59879
2.51 1.60002
2.52 1.60103
2.53 1.60212
2.54 1.60309
2.55 1.60403
2.56 1.60506
2.57 1.60605
2.58 1.60706
2.59 1.60799
2.6 1.60895
2.61 1.60986
2.62 1.61077
2.63 1.61167
2.64 1.61262
2.65 1.61353
2.66 1.61462
2.67 1.61583
2.68 1.6171
2.69 1.61814
2.7 1.61904
2.71 1.62004
2.72 1.62117
2.73 1.62229
2.74 1.62327
2.75 1.62426
2.76 1.62512
2.77 1.62603
2.78 1.62698
2.79 1.62787
2.8 1.62881
2.81 1.62963
2.82 1.63046
2.83 1.63143
2.84 1.63235
2.85 1.63322
2.86 1.63413
2.87 1.63499
2.88 1.63579
2.89 1.63648
2.9 1.63721
2.91 1.63794
2.92 1.63858
2.93 1.63932
2.94 1.64013
2.95 1.64078
2.96 1.64145
2.97 1.64225
2.98 1.64298
2.99 1.64372
3 1.64439
3.01 1.64501
3.02 1.64577
3.03 1.64658
3.04 1.64733
3.05 1.64784
3.06 1.64855
3.07 1.64913
3.08 1.64973
3.09 1.65029
3.1 1.65087
3.11 1.65147
3.12 1.65205
3.13 1.65256
3.14 1.65304
3.15 1.65353
3.16 1.65403
3.17 1.65444
3.18 1.65472
3.19 1.6549
3.2 1.65521
3.2 1.65521
3.21 1.65556
3.22 1.65591
3.23 1.65604
3.24 1.65622
3.25 1.65652
3.26 1.65673
3.27 1.65707
3.28 1.65759
3.29 1.65822
3.3 1.65887
3.31 1.65932
3.32 1.65975
3.33 1.66019
3.34 1.66044
3.35 1.66087
3.36 1.66128
3.37 1.66184
3.38 1.66241
3.39 1.66271
3.4 1.66298
3.41 1.6634
3.42 1.66375
3.43 1.66403
3.44 1.66441
3.45 1.66471
3.45 1.66471
3.46 1.66492
3.47 1.66526
3.48 1.66563
3.49 1.66589
3.5 1.66621
3.51 1.63507
3.52 1.59286
3.53 1.57117
3.54 1.55654
3.55 1.5457
3.56 1.5372
3.57 1.53028
3.58 1.52439
3.59 1.51925
3.6 1.51428
3.6 1.51428
3.61 1.50893
3.62 1.50045
3.63 1.48466
3.64 1.46253
3.65 1.43182
3.66 1.38753
3.67 1.33484
3.68 1.28046
3.69 1.2289
3.7 1.18238
3.71 1.13888
3.72 1.09862
3.73 1.06188
3.74 1.02818
3.75 0.996942
3.76 0.96823
3.77 0.941965
3.78 0.917135
3.79 0.893854
3.8 0.871809
3.81 0.850194
3.82 0.828626
3.83 0.808189
3.84 0.789048
3.85 0.771572
3.86 0.755186
3.87 0.739298
3.88 0.723791
3.89 0.708914
3.9 0.694945
3.91 0.681682
3.92 0.669156
3.93 0.657001
3.94 0.645363
3.95 0.63427
3.96 0.623766
3.97 0.614112
3.98 0.604623
3.99 0.594996
4 0.585442
4 0.585442
4.01 0.576354
4.02 0.567681
4.03 0.55966
4.04 0.551584
4.05 0.54324
4.06 0.534765
4.07 0.526573
4.08 0.518947
4.09 0.511507
4.1 0.504099
4.11 0.49722
4.12 0.491103
4.13 0.485463
4.14 0.479966
4.15 0.474768
4.16 0.469924
4.17 0.465426
4.18 0.461295
4.19 0.457445
4.2 0.453532
4.21 0.449747
4.22 0.446381
4.23 0.443036
4.24 0.439898
4.25 0.437068
4.26 0.434386
4.27 0.431691
4.28 0.429029
4.29 0.426551
4.3 0.424287
4.31 0.422081
4.32 0.419751
4.33 0.417101
4.34 0.414354
4.35 0.411679
4.36 0.409199
4.37 0.406959
4.38 0.404784
4.39 0.402749
4.4 0.40074
4.41 0.39875
4.42 0.396998
4.43 0.395341
4.44 0.393767
4.45 0.392362
4.46 0.391006
4.47 0.38959
4.48 0.388231
4.49 0.386981
4.5 0.38562
4.51 0.384055
4.52 0.382373
4.53 0.380686
4.54 0.379122
4.55 0.377772
4.56 0.376339
4.57 0.374933
4.58 0.373809
4.59 0.372811
4.6 0.371832
4.61 0.370746
4.62 0.369569
4.63 0.368403
4.64 0.367031
4.65 0.365431
4.66 0.363852
4.67 0.362522
4.68 0.361329
4.69 0.36034
4.7 0.359477
4.71 0.358686
4.72 0.357865
4.73 0.357078
4.74 0.356331
4.75 0.355809
4.76 0.355601
4.77 0.355416
4.78 0.355258
4.79 0.355128
4.8 0.354835
4.81 0.354357
4.82 0.353602
4.83 0.352693
4.84 0.351585
4.85 0.35047
4.86 0.349651
4.87 0.349087
4.88 0.348604
4.89 0.348172
4.9 0.347874
4.91 0.347586
4.92 0.347285
4.93 0.346907
4.94 0.346461
4.95 0.346092
4.96 0.345853
4.97 0.345675
4.98 0.345417
4.99 0.345089
5 0.344718
5.01 0.344421
5.02 0.344088
5.03 0.343671
5.04 0.343239
5.05 0.342881
5.06 0.342673
5.07 0.342585
5.08 0.342548
5.09 0.342435
5.1 0.34224
5.11 0.342071
5.12 0.341853
5.13 0.341658
5.14 0.341478
5.15 0.341252
5.16 0.341002
5.17 0.340836
5.18 0.340784
5.19 0.340846
5.2 0.340977
5.21 0.341214
5.22 0.341563
5.23 0.342036
5.24 0.342465
5.25 0.342757
5.26 0.342898
5.27 0.343037
5.28 0.343116
5.29 0.343136
5.3 0.343014
5.31 0.342844
5.32 0.342727
5.33 0.342579
5.34 0.342278
5.35 0.3419
5.36 0.341494
5.37 0.341096
5.38 0.340742
5.39 0.340432
5.4 0.340128
5.41 0.339924
5.42 0.3399
5.43 0.339923
5.44 0.339911
5.45 0.339894
5.46 0.339919
5.47 0.34002
5.48 0.340123
5.49 0.340249
5.5 0.340188
