0 	0.019866912 	0.010838433 	0.99822733
2.0100503e-05 	0.019866912 	0.010838433 	0.99822733
4.0201005e-05 	0.019866912 	0.010838433 	0.99822733
6.0301508e-05 	0.019061776 	0.0074108352 	1.0069225
8.040201e-05 	0.019061776 	0.0074108352 	1.0069225
0.00010050251 	0.019061776 	0.0074108352 	1.0069225
0.00012060302 	0.017468263 	0.011738413 	1.0200188
0.00014070352 	0.017468263 	0.011738413 	1.0200188
0.00016080402 	0.017468263 	0.011738413 	1.0200188
0.00018090452 	0.015968627 	0.017060201 	1.0357387
0.00020100503 	0.015968627 	0.017060201 	1.0357387
0.00022110553 	0.015968627 	0.017060201 	1.0357387
0.00024120603 	0.013698837 	0.021658264 	1.0512195
0.00026130653 	0.013698837 	0.021658264 	1.0512195
0.00028140704 	0.0098839337 	0.024580386 	1.0635274
0.00030150754 	0.0098839337 	0.024580386 	1.0635274
0.00032160804 	0.0098839337 	0.024580386 	1.0635274
0.00034170854 	0.0041767275 	0.02547657 	1.070791
0.00036180905 	0.0041767275 	0.02547657 	1.070791
0.00038190955 	0.0041767275 	0.02547657 	1.070791
0.00040201005 	-0.0030530513 	0.024510231 	1.0725427
0.00042211055 	-0.0030530513 	0.024510231 	1.0725427
0.00044221106 	-0.0030530513 	0.024510231 	1.0725427
0.00046231156 	-0.011142813 	0.022140588 	1.069216
0.00048241206 	-0.011142813 	0.022140588 	1.069216
0.00050251256 	-0.0194397 	0.018766195 	1.0617573
0.00052261307 	-0.0194397 	0.018766195 	1.0617573
0.00054271357 	-0.0194397 	0.018766195 	1.0617573
0.00056281407 	-0.027326898 	0.014815273 	1.0515174
0.00058291457 	-0.027326898 	0.014815273 	1.0515174
0.00060301508 	-0.027326898 	0.014815273 	1.0515174
0.00062311558 	-0.034400457 	0.010505609 	1.03998
0.00064321608 	-0.034400457 	0.010505609 	1.03998
0.00066331658 	-0.034400457 	0.010505609 	1.03998
0.00068341709 	-0.040291074 	0.0053867487 	1.0284872
0.00070351759 	-0.040291074 	0.0053867487 	1.0284872
0.00072361809 	-0.044764798 	-0.0016246893 	1.0181939
0.00074371859 	-0.044764798 	-0.0016246893 	1.0181939
0.0007638191 	-0.044764798 	-0.0016246893 	1.0181939
0.0007839196 	-0.047325208 	-0.006542948 	1.0170111
0.0008040201 	-0.047325208 	-0.006542948 	1.0170111
0.0008241206 	-0.047325208 	-0.006542948 	1.0170111
0.00084422111 	-0.050210983 	-0.01926669 	1.0078636
0.00086432161 	-0.050210983 	-0.01926669 	1.0078636
0.00088442211 	-0.050083179 	-0.023066561 	1.0005168
0.00090452261 	-0.051760639 	-0.035002667 	0.98901556
0.00092462312 	-0.051760639 	-0.035002667 	0.98901556
0.00094472362 	-0.053451198 	-0.044771415 	0.97332032
0.00096482412 	-0.053451198 	-0.044771415 	0.97332032
0.00098492462 	-0.053451198 	-0.044771415 	0.97332032
0.0010050251 	-0.055631885 	-0.051104648 	0.95243762
0.0010251256 	-0.055631885 	-0.051104648 	0.95243762
0.0010452261 	-0.055631885 	-0.051104648 	0.95243762
0.0010653266 	-0.058799601 	-0.052966105 	0.92798285
0.0010854271 	-0.058799601 	-0.052966105 	0.92798285
0.0011055276 	-0.058799601 	-0.052966105 	0.92798285
0.0011256281 	-0.062824882 	-0.052236625 	0.90520256
0.0011457286 	-0.062824882 	-0.052236625 	0.90520256
0.0011658291 	-0.062824882 	-0.052236625 	0.90520256
0.0011859296 	-0.067229984 	-0.051567752 	0.88800429
0.0012060302 	-0.067229984 	-0.051567752 	0.88800429
0.0012261307 	-0.067229984 	-0.051567752 	0.88800429
0.0012462312 	-0.071521207 	-0.05154114 	0.87738177
0.0012663317 	-0.071521207 	-0.05154114 	0.87738177
0.0012864322 	-0.071521207 	-0.05154114 	0.87738177
0.0013065327 	-0.07532086 	-0.050217824 	0.87166712
0.0013266332 	-0.07532086 	-0.050217824 	0.87166712
0.0013467337 	-0.07532086 	-0.050217824 	0.87166712
0.0013668342 	-0.078408566 	-0.04566216 	0.86881334
0.0013869347 	-0.078408566 	-0.04566216 	0.86881334
0.0014070352 	-0.078408566 	-0.04566216 	0.86881334
0.0014271357 	-0.080531522 	-0.03805632 	0.86781822
0.0014472362 	-0.080531522 	-0.03805632 	0.86781822
0.0014673367 	-0.080531522 	-0.03805632 	0.86781822
0.0014874372 	-0.081568597 	-0.029135699 	0.86832956
0.0015075377 	-0.081568597 	-0.029135699 	0.86832956
0.0015276382 	-0.081557787 	-0.020278877 	0.86990136
0.0015477387 	-0.081557787 	-0.020278877 	0.86990136
0.0015678392 	-0.081557787 	-0.020278877 	0.86990136
0.0015879397 	-0.08059018 	-0.011774003 	0.87202111
0.0016080402 	-0.08059018 	-0.011774003 	0.87202111
0.0016281407 	-0.08059018 	-0.011774003 	0.87202111
0.0016482412 	-0.07873552 	-0.0033893131 	0.87448927
0.0016683417 	-0.07873552 	-0.0033893131 	0.87448927
0.0016884422 	-0.076100499 	0.0050364224 	0.87744411
0.0017085427 	-0.076100499 	0.0050364224 	0.87744411
0.0017286432 	-0.076100499 	0.0050364224 	0.87744411
0.0017487437 	-0.072828549 	0.013481561 	0.88117397
0.0017688442 	-0.072828549 	0.013481561 	0.88117397
0.0017889447 	-0.072828549 	0.013481561 	0.88117397
0.0018090452 	-0.069054275 	0.021815141 	0.88586204
0.0018291457 	-0.069054275 	0.021815141 	0.88586204
0.0018492462 	-0.064928302 	0.029909222 	0.89149235
0.0018693467 	-0.064928302 	0.029909222 	0.89149235
0.0018894472 	-0.064928302 	0.029909222 	0.89149235
0.0019095477 	-0.060573365 	0.037754888 	0.8978294
0.0019296482 	-0.060573365 	0.037754888 	0.8978294
0.0019497487 	-0.056036164 	0.045521592 	0.90444462
0.0019698492 	-0.056036164 	0.045521592 	0.90444462
0.0019899497 	-0.051292051 	0.053528253 	0.91073148
0.0020100503 	-0.051292051 	0.053528253 	0.91073148
0.0020301508 	-0.051292051 	0.053528253 	0.91073148
0.0020502513 	-0.046248004 	0.062199471 	0.91601658
0.0020703518 	-0.046248004 	0.062199471 	0.91601658
0.0020904523 	-0.040732844 	0.07197818 	0.91958935
0.0021105528 	-0.040732844 	0.07197818 	0.91958935
0.0021306533 	-0.040732844 	0.07197818 	0.91958935
0.0021507538 	-0.034498175 	0.083058988 	0.92082005
0.0021708543 	-0.034498175 	0.083058988 	0.92082005
0.0021909548 	-0.02734297 	0.095142393 	0.91914241
0.0022110553 	-0.02734297 	0.095142393 	0.91914241
0.0022311558 	-0.019178554 	0.10708739 	0.91397023
0.0022512563 	-0.019178554 	0.10708739 	0.91397023
0.0022713568 	-0.010084483 	0.11684485 	0.90450426
0.0022914573 	-0.010084483 	0.11684485 	0.90450426
0.0023115578 	-0.010084483 	0.11684485 	0.90450426
0.0023316583 	-0.0003351773 	0.12179637 	0.89001185
0.0023517588 	-0.0003351773 	0.12179637 	0.89001185
0.0023718593 	0.0093501185 	0.11956709 	0.87076867
0.0023919598 	0.0093501185 	0.11956709 	0.87076867
0.0024120603 	0.017863278 	0.10891527 	0.84910021
0.0024321608 	0.017863278 	0.10891527 	0.84910021
0.0024522613 	0.024052501 	0.090370053 	0.82937328
0.0024723618 	0.024052501 	0.090370053 	0.82937328
0.0024924623 	0.026940881 	0.066303254 	0.81606568
0.0025125628 	0.026940881 	0.066303254 	0.81606568
0.0025326633 	0.026369965 	0.040260525 	0.81140837
0.0025527638 	0.026369965 	0.040260525 	0.81140837
0.0025728643 	0.023390954 	0.016438687 	0.81403317
0.0025929648 	0.023390954 	0.016438687 	0.81403317
0.0026130653 	0.019760968 	-0.00096121597 	0.81907048
0.0026331658 	0.019760968 	-0.00096121597 	0.81907048
0.0026532663 	0.017256925 	-0.0092437245 	0.81954819
0.0026733668 	0.017256925 	-0.0092437245 	0.81954819
0.0026934673 	0.01733203 	-0.0088042374 	0.80887096
0.0027135678 	0.01733203 	-0.0088042374 	0.80887096
0.0027336683 	0.020874826 	-0.001765989 	0.78397458
0.0027537688 	0.020874826 	-0.001765989 	0.78397458
0.0027738693 	0.027705185 	0.0095128022 	0.74508584
0.0027939698 	0.027705185 	0.0095128022 	0.74508584
0.0028140704 	0.036464889 	0.022739494 	0.69796785
0.0028341709 	0.036464889 	0.022739494 	0.69796785
0.0028542714 	0.044672236 	0.034990042 	0.65576853
0.0028743719 	0.049655592 	0.042931788 	0.63126137
0.0028944724 	0.049655592 	0.042931788 	0.63126137
0.0029145729 	0.049601236 	0.044206399 	0.62821865
0.0029346734 	0.049601236 	0.044206399 	0.62821865
0.0029547739 	0.044467583 	0.037980704 	0.64268592
0.0029748744 	0.044467583 	0.037980704 	0.64268592
0.0029949749 	0.035841549 	0.024302869 	0.66763213
0.0030150754 	0.025818079 	0.0039773067 	0.69613868
0.0030351759 	0.025818079 	0.0039773067 	0.69613868
0.0030552764 	0.016002158 	-0.020371394 	0.72326319
0.0030753769 	0.016002158 	-0.020371394 	0.72326319
0.0030954774 	0.007785464 	-0.044249591 	0.74639124
0.0031155779 	0.00086152375 	-0.064091958 	0.76624838
0.0031356784 	0.00086152375 	-0.064091958 	0.76624838
0.0031557789 	-0.0053455755 	-0.078408569 	0.7845269
0.0031758794 	-0.0053455755 	-0.078408569 	0.7845269
0.0031959799 	-0.011511517 	-0.087436459 	0.80228462
0.0032160804 	-0.018061507 	-0.092127629 	0.81993265
0.0032361809 	-0.018061507 	-0.092127629 	0.81993265
0.0032562814 	-0.02536186 	-0.093458245 	0.8377993
0.0032763819 	-0.033638546 	-0.092260012 	0.85661926
0.0032964824 	-0.033638546 	-0.092260012 	0.85661926
0.0033165829 	-0.04275167 	-0.089274453 	0.87731832
0.0033366834 	-0.052232293 	-0.085223331 	0.90028193
0.0033567839 	-0.052232293 	-0.085223331 	0.90028193
0.0033768844 	-0.06123216 	-0.080935606 	0.92418986
0.0033969849 	-0.06860412 	-0.077515946 	0.9453025
0.0034170854 	-0.06860412 	-0.077515946 	0.9453025
0.0034371859 	-0.073081018 	-0.076266683 	0.95829836
0.0034572864 	-0.073557872 	-0.078198066 	0.95832394
0.0034773869 	-0.069434959 	-0.083413738 	0.94304696
0.0034974874 	-0.069434959 	-0.083413738 	0.94304696
0.0035175879 	-0.06093554 	-0.090708055 	0.91392946
0.0035376884 	-0.049343454 	-0.097597579 	0.8765744
0.0035577889 	-0.036877755 	-0.10093834 	0.83952121
0.0035778894 	-0.036877755 	-0.10093834 	0.83952121
0.0035979899 	-0.025968975 	-0.098326547 	0.81057006
0.0036180905 	-0.018208486 	-0.089635297 	0.79171966
0.003638191 	-0.013645291 	-0.077523497 	0.77670984
0.0036582915 	-0.013645291 	-0.077523497 	0.77670984
0.003678392 	-0.010974826 	-0.066024507 	0.75428966
0.0036984925 	-0.0085666737 	-0.058049458 	0.71537077
0.003718593 	-0.0055376397 	-0.053764592 	0.6586817
0.0037386935 	-0.0020862456 	-0.051030732 	0.59089455
0.003758794 	0.00095906758 	-0.047271471 	0.52177483
0.0037788945 	0.00095906758 	-0.047271471 	0.52177483
0.003798995 	0.0029210158 	-0.041141535 	0.45855069
0.0038190955 	0.0036650523 	-0.032968834 	0.40336194
0.003839196 	0.0034943419 	-0.024137748 	0.35430834
0.0038592965 	0.0028593373 	-0.016158335 	0.30812033
0.003879397 	0.0021172944 	-0.0099751868 	0.26225344
0.0038994975 	0.0014867133 	-0.0058444252 	0.21567816
0.003919598 	0.0010068493 	-0.0034478681 	0.16850066
0.0039396985 	0.00062661597 	-0.0021528076 	0.12116489
0.003959799 	0.00031546832 	-0.0012979572 	0.073742187
0.0039798995 	6.2683128e-05 	-0.00046178024 	0.025490009
0.004 	6.2683128e-05 	-0.00046178024 	0.025490009
