0 	-0.0084580058 	-0.0084214363 	0.96596118
5.5555625e-05 	-0.0019693379 	-0.0085985755 	0.96253837
0.00011111111 	0.00021151 	-0.0046224936 	0.95922991
0.00016666667 	0.00085974758 	0.00063085634 	0.95503443
0.00022222222 	0.00041496991 	0.0063925228 	0.94970009
0.00027777778 	-0.0011097811 	0.011940575 	0.94411647
0.00033333333 	-0.0037007587 	0.016730887 	0.93983792
0.00038888889 	-0.0071593402 	0.020560792 	0.93800691
0.00044444444 	-0.011102329 	0.023529401 	0.93872812
0.0005 	-0.015082709 	0.025828447 	0.94132575
0.00055555556 	-0.018719949 	0.027576288 	0.94494162
0.00061111111 	-0.021752618 	0.02883138 	0.9488919
0.00066666667 	-0.024045195 	0.029706113 	0.95270638
0.00072222222 	-0.025566513 	0.030432257 	0.95605953
0.00077777778 	-0.026380116 	0.031313719 	0.95870689
0.00083333333 	-0.026624668 	0.032629647 	0.96045778
0.00088888889 	-0.026487004 	0.03459755 	0.96116755
0.00094444444 	-0.02609148 	0.037394748 	0.96070867
0.001 	-0.025318216 	0.0413797 	0.95882694
0.0010617451 	-0.024058218 	0.046536965 	0.95506767
0.0011226367 	-0.022259465 	0.051563394 	0.94938546
0.0011826866 	-0.020204417 	0.054498281 	0.94233879
0.0012419064 	-0.018781075 	0.05412334 	0.93518477
0.0013003077 	-0.01862063 	0.050853021 	0.92872181
0.0013579017 	-0.019548897 	0.045877285 	0.92259821
0.0014146996 	-0.020939348 	0.040146813 	0.91616209
0.0014707124 	-0.02229021 	0.03426376 	0.90920379
0.0015259509 	-0.023484089 	0.028471744 	0.90201156
0.001580426 	-0.024687906 	0.022718089 	0.89503043
0.001634148 	-0.026209275 	0.016873268 	0.88867807
0.0016871274 	-0.028254607 	0.010791509 	0.88331582
0.0017393745 	-0.030999165 	0.004423182 	0.8792403
0.0017908994 	-0.034553067 	-0.0022031071 	0.87643046
0.0018417121 	-0.038842286 	-0.0089620255 	0.87442617
0.0018918224 	-0.043570792 	-0.015491032 	0.87252348
0.0019412401 	-0.048274321 	-0.021453971 	0.87011889
0.0019899746 	-0.052572971 	-0.02666552 	0.86693679
0.0020380356 	-0.056171852 	-0.031081636 	0.86300417
0.0020854322 	-0.058896217 	-0.034750277 	0.85846586
0.0021321736 	-0.060663121 	-0.037750313 	0.853507
0.002178269 	-0.061443726 	-0.040146848 	0.848304
0.0022237272 	-0.061253092 	-0.041999716 	0.84302019
0.002268557 	-0.060159187 	-0.043372611 	0.8377984
0.0023127672 	-0.058275341 	-0.044337762 	0.83275162
0.0023563662 	-0.05575316 	-0.04495646 	0.82796449
0.0023993626 	-0.052758004 	-0.045277848 	0.82350885
0.0024417647 	-0.049447001 	-0.045336584 	0.81944942
0.0024835806 	-0.045956349 	-0.04516758 	0.81583642
0.0025248186 	-0.042387286 	-0.044801791 	0.81269243
0.0025654865 	-0.0388041 	-0.044278131 	0.81000428
0.0026055923 	-0.035239645 	-0.043637156 	0.80771083
0.0026451437 	-0.031688105 	-0.042923 	0.80571207
0.0026841484 	-0.028112633 	-0.042170096 	0.80388347
0.002722614 	-0.024471181 	-0.04138859 	0.80209619
0.0027605478 	-0.020734879 	-0.040543338 	0.80023287
0.0027979573 	-0.016882505 	-0.039555508 	0.79820617
0.0028348498 	-0.012925968 	-0.038320506 	0.79597355
0.0028712322 	-0.0089243872 	-0.036706821 	0.79355086
0.0029071118 	-0.0049170897 	-0.034575795 	0.79097057
0.0029424953 	-0.00096230323 	-0.031805215 	0.78833242
0.0029773898 	0.002885557 	-0.028311862 	0.78572292
0.003011802 	0.0065660117 	-0.024093091 	0.78323361
0.0030457385 	0.0099597303 	-0.019200084 	0.78093862
0.0030792059 	0.012980989 	-0.013745441 	0.77886984
0.0031122107 	0.015505846 	-0.0078931627 	0.77703021
0.0031447592 	0.017399241 	-0.0018680595 	0.77536914
0.0031768579 	0.018565065 	0.0040363862 	0.77378792
0.0032085129 	0.018981649 	0.0094565023 	0.77206883
0.0032397303 	0.01875315 	0.013958148 	0.76979262
0.0032705162 	0.018089379 	0.017062734 	0.7662696
0.0033008765 	0.017277042 	0.01834245 	0.76053103
0.0033308172 	0.016613447 	0.017565559 	0.75150957
0.0033603441 	0.016302889 	0.014850623 	0.73840038
0.0033894627 	0.016364007 	0.010755895 	0.72107396
0.0034181789 	0.016603133 	0.0062098173 	0.70032356
0.0034464982 	0.016652115 	0.0022392296 	0.67775573
0.003474426 	0.016153582 	-0.0004184501 	0.65531883
0.0035019678 	0.014964341 	-0.0015652685 	0.63466347
0.0035291288 	0.013201642 	-0.0015105044 	0.61671626
0.0035559144 	0.01119183 	-0.00079502818 	0.6016336
0.0035823298 	0.0093710951 	7.3051289e-05 	0.58907665
0.0036083801 	0.0080955423 	0.0006933438 	0.57855212
0.0036340702 	0.0074826984 	0.00075184896 	0.56958549
0.0036594053 	0.0074806253 	2.3380217e-05 	0.56172567
0.0036843901 	0.0079625039 	-0.0015977829 	0.55448088
0.0037090296 	0.0087318234 	-0.004094406 	0.54724578
0.0037333285 	0.0095526759 	-0.0073111016 	0.53920902
0.0037572915 	0.010181321 	-0.010937246 	0.52923403
0.0037809233 	0.010394641 	-0.014521802 	0.51575789
0.0038042285 	0.01004462 	-0.017547127 	0.4967859
0.0038272115 	0.0091120271 	-0.019524599 	0.47006074
0.0038498768 	0.0077119378 	-0.020125508 	0.43354923
0.0038722288 	0.0060438026 	-0.01925581 	0.38607375
0.0038942718 	0.0043309377 	-0.01707893 	0.32789699
0.0039160102 	0.0027642454 	-0.013965723 	0.26090095
0.003937448 	0.0014769356 	-0.010353668 	0.18812208
0.0039585896 	0.00055699857 	-0.0065257586 	0.11278431
0.0039794389 	6.2816722e-05 	-0.0024083399 	0.037345754
0.004 	-8.9895191e-06 	-0.0028565568 	0.034221046
