0 	0.0033356108 	-0.0062435048 	1.0453884
5.5555556e-05 	0.0066455643 	0.0025116042 	1.0598779
0.00011111111 	0.007399692 	0.00091748229 	1.0661519
0.00016666667 	0.00826786 	-0.001439558 	1.0715539
0.00022222222 	0.0089152524 	-0.0040913925 	1.0758706
0.00027777778 	0.0091539039 	-0.0067764325 	1.0788598
0.00033333333 	0.0088859783 	-0.0094950326 	1.0803426
0.00038888889 	0.0081245769 	-0.012660216 	1.080393
0.00044444444 	0.0070081131 	-0.017038622 	1.079575
0.0005 	0.0057750126 	-0.023262002 	1.0790196
0.00055555556 	0.0046864186 	-0.03089202 	1.0799612
0.00061111111 	0.0038680337 	-0.03768435 	1.0827476
0.00066666667 	0.0030858993 	-0.040153929 	1.0863441
0.00072222222 	0.0017697524 	-0.035841418 	1.0891175
0.00077777778 	-0.00044122536 	-0.025277452 	1.0895227
0.00083333333 	-0.0031616205 	-0.011991167 	1.0857471
0.00088888889 	-0.0052776125 	-0.00061347507 	1.0757996
0.00094444444 	-0.0054607632 	0.0056818833 	1.0588793
0.001 	-0.0030805847 	0.0068198118 	1.0349026
0.0010617199 	0.0021706864 	0.0043199489 	1.0061905
0.0011225874 	0.0085137497 	0.0019284213 	0.9786421
0.0011826143 	0.014313018 	0.0017651004 	0.95511412
0.0012418122 	0.018753455 	0.0038806325 	0.93567098
0.0013001926 	0.022001488 	0.0069986888 	0.9181143
0.0013577668 	0.024611981 	0.0096837344 	0.90058272
0.0014145458 	0.026756833 	0.011400809 	0.88387697
0.0014705407 	0.02826785 	0.012545121 	0.87044434
0.0015257623 	0.028988289 	0.013693735 	0.86144963
0.0015802213 	0.028711129 	0.014955305 	0.85569013
0.0016339282 	0.027042008 	0.015816826 	0.85079493
0.0016868934 	0.023425864 	0.015281436 	0.84486475
0.0017391271 	0.017412216 	0.01204766 	0.83727436
0.0017906395 	0.0090039654 	0.0048488953 	0.82865214
0.0018414404 	-0.0010567754 	-0.0066946408 	0.82001541
0.0018915398 	-0.011182609 	-0.021337008 	0.81178923
0.0019409473 	-0.019478704 	-0.036426598 	0.80370634
0.0019896725 	-0.024547391 	-0.048956452 	0.79593588
0.0020377248 	-0.025870619 	-0.056771773 	0.78967027
0.0020851134 	-0.023778573 	-0.059190048 	0.78632555
0.0021318476 	-0.019174955 	-0.05680333 	0.78657693
0.0021779364 	-0.01307959 	-0.051006511 	0.79016581
0.0022233887 	-0.006385179 	-0.043453053 	0.79621997
0.0022682133 	0.00027893459 	-0.035558486 	0.80367976
0.0023124189 	0.0065432134 	-0.028277773 	0.81158314
0.0023560139 	0.012124499 	-0.022050644 	0.81920621
0.0023990069 	0.016787382 	-0.016961303 	0.82604835
0.0024414062 	0.020431294 	-0.012864279 	0.831801
0.0024832199 	0.022997265 	-0.0094849098 	0.83630883
0.0025244562 	0.024484195 	-0.0064874073 	0.83955654
0.002565123 	0.024968375 	-0.0035526002 	0.84163604
0.0026052281 	0.024479999 	-0.00036704802 	0.84274357
0.0026447794 	0.023141782 	0.0033160031 	0.84316943
0.0026837845 	0.021197154 	0.0076135203 	0.8432953
0.0027222509 	0.018804265 	0.012543758 	0.8435756
0.0027601861 	0.0160951 	0.018061696 	0.84452898
0.0027975974 	0.01318119 	0.024135985 	0.84663836
0.002834492 	0.010146803 	0.030813707 	0.85026064
0.0028708772 	0.0070785307 	0.038242757 	0.85551985
0.0029067598 	0.0040557326 	0.04663466 	0.86225257
0.0029421469 	0.0011856845 	0.056194061 	0.87001583
0.0029770452 	-0.0014226961 	0.067052937 	0.87815539
0.0030114616 	-0.0036643077 	0.079218188 	0.88588982
0.0030454028 	-0.0054093923 	0.09254475 	0.89239824
0.0030788752 	-0.0065391868 	0.10671429 	0.89689108
0.0031118853 	-0.0069596626 	0.12120174 	0.89868598
0.0031444395 	-0.0066120777 	0.13521933 	0.8972778
0.0031765442 	-0.0054843478 	0.14764345 	0.89242238
0.0032082055 	-0.003608533 	0.15697183 	0.88416573
0.0032394295 	-0.0010698555 	0.16139018 	0.87286305
0.0032702223 	0.0020100445 	0.1590568 	0.85904744
0.0033005899 	0.0055147724 	0.14864968 	0.84313939
0.0033305381 	0.009296296 	0.13016839 	0.82516207
0.0033600727 	0.013056435 	0.10552473 	0.80483527
0.0033891994 	0.016308281 	0.07829329 	0.78219495
0.0034179239 	0.018537972 	0.052417365 	0.75815038
0.0034462517 	0.019458632 	0.030748778 	0.73427756
0.0034741882 	0.019115653 	0.014371148 	0.71203979
0.003501739 	0.017795136 	0.0028696166 	0.69219287
0.0035289093 	0.015849041 	-0.0049623895 	0.67473949
0.0035557043 	0.013578088 	-0.0105031 	0.65920679
0.0035821293 	0.011173673 	-0.01491672 	0.64488677
0.0036081894 	0.0087448164 	-0.018965325 	0.63097143
0.0036338895 	0.0063891135 	-0.022989466 	0.61655228
0.0036592348 	0.0042129903 	-0.026967221 	0.60061688
0.00368423 	0.0023317067 	-0.030606763 	0.5821076
0.00370888 	0.00084890946 	-0.03345628 	0.56004884
0.0037331896 	-0.0001708137 	-0.035029124 	0.53369895
0.0037571635 	-0.00071808652 	-0.034941769 	0.50265352
0.0037808063 	-0.00086129839 	-0.033051293 	0.46684942
0.0038041226 	-0.00073014671 	-0.029550681 	0.42646197
0.0038271169 	-0.000469593 	-0.024969373 	0.38180066
0.0038497936 	-0.00020749438 	-0.020036347 	0.33332389
0.0038721572 	-2.3695376e-05 	-0.015442323 	0.28178804
0.0038942119 	5.5217942e-05 	-0.011618499 	0.22836774
0.003915962 	4.7196044e-05 	-0.00864971 	0.17454714
0.0039374118 	-3.019579e-06 	-0.006326985 	0.12177521
0.0039585653 	-4.0996917e-05 	-0.00424008 	0.071100656
0.0039794267 	-2.2447333e-05 	-0.0018039687 	0.022992191
0.004 	-1.2780715e-05 	-0.0023838188 	0.02141863
