0 	0.024654522 	-0.01496341 	1.0301009
5.5555556e-05 	0.0099258828 	0.039755749 	1.0156762
0.00011111111 	0.0073000995 	0.047141607 	1.0095261
0.00016666667 	0.0058480713 	0.054003238 	1.004489
0.00022222222 	0.0041610127 	0.060178307 	1.0007069
0.00027777778 	0.0019262938 	0.065298137 	0.99819601
0.00033333333 	-0.00076629162 	0.069178329 	0.99685679
0.00038888889 	-0.003637684 	0.071832796 	0.99653118
0.00044444444 	-0.0063375977 	0.073402354 	0.99703151
0.0005 	-0.0085078341 	0.074058021 	0.99812953
0.00055555556 	-0.0098170262 	0.073952513 	0.99952976
0.00061111111 	-0.01000866 	0.073171501 	1.0008426
0.00066666667 	-0.0089079745 	0.07175872 	1.001608
0.00072222222 	-0.0064371241 	0.069662133 	1.0013303
0.00077777778 	-0.0025944294 	0.066842 	0.9995712
0.00083333333 	0.0025404568 	0.063250122 	0.99614028
0.00088888889 	0.0086583615 	0.058915931 	0.99126669
0.00094444444 	0.015315217 	0.053914059 	0.9856773
0.001 	0.022456741 	0.048012339 	0.98005453
0.0010617451 	0.029340957 	0.041407234 	0.97580941
0.0011226367 	0.035304129 	0.034688555 	0.9738917
0.0011826866 	0.040253841 	0.028092778 	0.97418179
0.0012419064 	0.044421145 	0.021695143 	0.97614145
0.0013003077 	0.048137713 	0.015607883 	0.97911869
0.0013579017 	0.05165988 	0.0098530307 	0.98254738
0.0014146996 	0.055129993 	0.0044341315 	0.98601465
0.0014707124 	0.058568974 	-0.0005635471 	0.98924378
0.0015259509 	0.061879819 	-0.0049873966 	0.99206942
0.001580426 	0.064859363 	-0.0086005923 	0.99442334
0.001634148 	0.06725596 	-0.011152172 	0.99632152
0.0016871274 	0.068829176 	-0.012457643 	0.99781182
0.0017393745 	0.069399696 	-0.012501506 	0.99890113
0.0017908994 	0.068929639 	-0.011430685 	0.99953437
0.0018417121 	0.067550602 	-0.0094787043 	0.99965903
0.0018918224 	0.065534557 	-0.0068599737 	0.99932193
0.0019412401 	0.06321257 	-0.0037952805 	0.99868927
0.0019899746 	0.06089827 	-0.00051652909 	0.99795155
0.0020380356 	0.058863376 	0.0027379272 	0.99722512
0.0020854322 	0.057293777 	0.0057849702 	0.99654454
0.0021321736 	0.056227644 	0.0085695322 	0.99592918
0.002178269 	0.055559433 	0.011202242 	0.99543931
0.0022237272 	0.055112393 	0.013942145 	0.99515074
0.002268557 	0.054695256 	0.017115741 	0.99511363
0.0023127672 	0.054167069 	0.021036865 	0.99533192
0.0023563662 	0.053472448 	0.025914013 	0.99577974
0.0023993626 	0.052609441 	0.031753895 	0.99639419
0.0024417647 	0.051550587 	0.038253355 	0.99698575
0.0024835806 	0.050152 	0.044782937 	0.99713604
0.0025248186 	0.048155051 	0.050519757 	0.99622321
0.0025654865 	0.045275463 	0.054660962 	0.99359171
0.0026055923 	0.041329856 	0.056639811 	0.98877221
0.0026451437 	0.036363263 	0.056265576 	0.98164021
0.0026841484 	0.030714839 	0.053754833 	0.97243791
0.002722614 	0.024906503 	0.049604226 	0.96169596
0.0027605478 	0.019415332 	0.044435227 	0.95011857
0.0027979573 	0.014556003 	0.038827429 	0.93847081
0.0028348498 	0.010488554 	0.033210522 	0.92742292
0.0028712322 	0.0072743687 	0.027830516 	0.91746223
0.0029071118 	0.0049098781 	0.02278845 	0.90888615
0.0029424953 	0.0033417323 	0.018088338 	0.90182627
0.0029773898 	0.0024903195 	0.013688258 	0.89629253
0.003011802 	0.0022649609 	0.0095349458 	0.89222125
0.0030457385 	0.0025728371 	0.0055828833 	0.88950358
0.0030792059 	0.0033126674 	0.0018089239 	0.88800138
0.0031122107 	0.0043829976 	-0.0017892705 	0.88755643
0.0031447592 	0.0056662478 	-0.0051969361 	0.88797872
0.0031768579 	0.0071332062 	-0.0083905596 	0.88902455
0.0032085129 	0.0087634134 	-0.011328649 	0.89044162
0.0032397303 	0.010458243 	-0.013972805 	0.89197151
0.0032705162 	0.01214526 	-0.016290779 	0.89333956
0.0033008765 	0.013771051 	-0.018247725 	0.89428618
0.0033308172 	0.01530575 	-0.019822775 	0.8945768
0.0033603441 	0.016749991 	-0.021013198 	0.89402296
0.0033894627 	0.018134599 	-0.02184112 	0.89250743
0.0034181789 	0.019496492 	-0.022367754 	0.89001055
0.0034464982 	0.020852972 	-0.022687973 	0.88665113
0.003474426 	0.022183477 	-0.022937127 	0.88269186
0.0035019678 	0.023409296 	-0.023258376 	0.87852676
0.0035291288 	0.024388832 	-0.023782449 	0.87458295
0.0035559144 	0.024946483 	-0.024605046 	0.87117551
0.0035823298 	0.024921008 	-0.025790211 	0.86832748
0.0036083801 	0.024228643 	-0.027403361 	0.86559908
0.0036340702 	0.022913545 	-0.029555736 	0.8619516
0.0036594053 	0.021155067 	-0.032385527 	0.85569946
0.0036843901 	0.019212587 	-0.035934565 	0.8446456
0.0037090296 	0.017318087 	-0.039926937 	0.82648396
0.0037333285 	0.015568481 	-0.043605934 	0.79939748
0.0037572915 	0.013895494 	-0.045841869 	0.76254462
0.0037809233 	0.012148441 	-0.045570155 	0.71608505
0.0038042285 	0.010232905 	-0.042336293 	0.66073856
0.0038272115 	0.0081949937 	-0.03657738 	0.59731572
0.0038498768 	0.0061920922 	-0.029432608 	0.5266566
0.0038722288 	0.0043943832 	-0.02222388 	0.44992475
0.0038942718 	0.0029054996 	-0.015959498 	0.36882369
0.0039160102 	0.0017479008 	-0.011109337 	0.28543564
0.003937448 	0.00089734705 	-0.0076209999 	0.20177381
0.0039585896 	0.00032684228 	-0.0049844887 	0.11935475
0.0039794389 	3.3782591e-05 	-0.0022132173 	0.039059949
0.004 	4.3222478e-05 	-0.0043069551 	0.042853856
