0 	-0.0043900788 	0.056822518 	0.87840964
2.0100503e-05 	-0.055582753 	-0.002879331 	0.87330085
4.0201005e-05 	-0.055582753 	-0.002879331 	0.87330085
6.0301508e-05 	-0.047082655 	-0.025255316 	0.8678833
8.040201e-05 	-0.047082655 	-0.025255316 	0.8678833
0.00010050251 	-0.047082655 	-0.025255316 	0.8678833
0.00012060302 	-0.041362716 	-0.028424438 	0.86218844
0.00014070352 	-0.041362716 	-0.028424438 	0.86218844
0.00016080402 	-0.041362716 	-0.028424438 	0.86218844
0.00018090452 	-0.036406726 	-0.027977751 	0.85647728
0.00020100503 	-0.036406726 	-0.027977751 	0.85647728
0.00022110553 	-0.036406726 	-0.027977751 	0.85647728
0.00024120603 	-0.031198516 	-0.0262573 	0.85128502
0.00026130653 	-0.031198516 	-0.0262573 	0.85128502
0.00028140704 	-0.025626266 	-0.024052026 	0.84738091
0.00030150754 	-0.025626266 	-0.024052026 	0.84738091
0.00032160804 	-0.025626266 	-0.024052026 	0.84738091
0.00034170854 	-0.019934036 	-0.021829996 	0.84557612
0.00036180905 	-0.019934036 	-0.021829996 	0.84557612
0.00038190955 	-0.019934036 	-0.021829996 	0.84557612
0.00040201005 	-0.014492623 	-0.019923302 	0.84631019
0.00042211055 	-0.014492623 	-0.019923302 	0.84631019
0.00044221106 	-0.014492623 	-0.019923302 	0.84631019
0.00046231156 	-0.0095818764 	-0.018482792 	0.84927139
0.00048241206 	-0.0095818764 	-0.018482792 	0.84927139
0.00050251256 	-0.0053234733 	-0.017404375 	0.85347871
0.00052261307 	-0.0053234733 	-0.017404375 	0.85347871
0.00054271357 	-0.0053234733 	-0.017404375 	0.85347871
0.00056281407 	-0.0016053813 	-0.01655877 	0.85778173
0.00058291457 	-0.0016053813 	-0.01655877 	0.85778173
0.00060301508 	-0.0016053813 	-0.01655877 	0.85778173
0.00062311558 	0.001890598 	-0.015878596 	0.8617003
0.00064321608 	0.001890598 	-0.015878596 	0.8617003
0.00066331658 	0.001890598 	-0.015878596 	0.8617003
0.00068341709 	0.0053980224 	-0.015514217 	0.86554389
0.00070351759 	0.0053980224 	-0.015514217 	0.86554389
0.00072361809 	0.008816795 	-0.015798327 	0.86982021
0.00074371859 	0.008816795 	-0.015798327 	0.86982021
0.0007638191 	0.008816795 	-0.015798327 	0.86982021
0.0007839196 	0.012008393 	-0.016936666 	0.87477437
0.0008040201 	0.012008393 	-0.016936666 	0.87477437
0.0008241206 	0.012008393 	-0.016936666 	0.87477437
0.00084422111 	0.014797776 	-0.018953143 	0.88038155
0.00086432161 	0.014797776 	-0.018953143 	0.88038155
0.00088442211 	0.014797776 	-0.018953143 	0.88038155
0.00090452261 	0.017189612 	-0.021792611 	0.88648534
0.00092462312 	0.017189612 	-0.021792611 	0.88648534
0.00094472362 	0.018898535 	-0.025212647 	0.8929658
0.00096482412 	0.018898535 	-0.025212647 	0.8929658
0.00098492462 	0.018898535 	-0.025212647 	0.8929658
0.0010050251 	0.014854004 	-0.020775239 	0.91089149
0.0010251256 	0.014854004 	-0.020775239 	0.91089149
0.0010452261 	0.014854004 	-0.020775239 	0.91089149
0.0010653266 	0.017181219 	-0.025813908 	0.91799314
0.0010854271 	0.017181219 	-0.025813908 	0.91799314
0.0011055276 	0.017181219 	-0.025813908 	0.91799314
0.0011256281 	0.019355085 	-0.03086385 	0.92489013
0.0011457286 	0.019355085 	-0.03086385 	0.92489013
0.0011658291 	0.019355085 	-0.03086385 	0.92489013
0.0011859296 	0.021379969 	-0.035647686 	0.93159329
0.0012060302 	0.021379969 	-0.035647686 	0.93159329
0.0012261307 	0.021379969 	-0.035647686 	0.93159329
0.0012462312 	0.023353155 	-0.039906974 	0.9381075
0.0012663317 	0.023353155 	-0.039906974 	0.9381075
0.0012864322 	0.023353155 	-0.039906974 	0.9381075
0.0013065327 	0.025337332 	-0.043437688 	0.94439197
0.0013266332 	0.025337332 	-0.043437688 	0.94439197
0.0013467337 	0.025337332 	-0.043437688 	0.94439197
0.0013668342 	0.027388553 	-0.046115777 	0.95033378
0.0013869347 	0.027388553 	-0.046115777 	0.95033378
0.0014070352 	0.027388553 	-0.046115777 	0.95033378
0.0014271357 	0.029502617 	-0.047908725 	0.95578199
0.0014472362 	0.029502617 	-0.047908725 	0.95578199
0.0014673367 	0.029502617 	-0.047908725 	0.95578199
0.0014874372 	0.031626348 	-0.048806526 	0.96056899
0.0015075377 	0.031626348 	-0.048806526 	0.96056899
0.0015276382 	0.033633281 	-0.048892709 	0.96461376
0.0015477387 	0.033633281 	-0.048892709 	0.96461376
0.0015678392 	0.033633281 	-0.048892709 	0.96461376
0.0015879397 	0.035344539 	-0.048235201 	0.96787824
0.0016080402 	0.035344539 	-0.048235201 	0.96787824
0.0016281407 	0.035344539 	-0.048235201 	0.96787824
0.0016482412 	0.036528564 	-0.046899456 	0.97047221
0.0016683417 	0.036528564 	-0.046899456 	0.97047221
0.0016884422 	0.03684267 	-0.044885016 	0.972653
0.0017085427 	0.03684267 	-0.044885016 	0.972653
0.0017286432 	0.03684267 	-0.044885016 	0.972653
0.0017487437 	0.035862176 	-0.04217264 	0.97485981
0.0017688442 	0.035862176 	-0.04217264 	0.97485981
0.0017889447 	0.035862176 	-0.04217264 	0.97485981
0.0018090452 	0.033212501 	-0.038824421 	0.97764258
0.0018291457 	0.033212501 	-0.038824421 	0.97764258
0.0018492462 	0.028574439 	-0.034826749 	0.98152794
0.0018693467 	0.028574439 	-0.034826749 	0.98152794
0.0018894472 	0.028574439 	-0.034826749 	0.98152794
0.0019095477 	0.021933104 	-0.030023589 	0.98673272
0.0019296482 	0.021933104 	-0.030023589 	0.98673272
0.0019497487 	0.013568122 	-0.024126796 	0.99289609
0.0019698492 	0.013568122 	-0.024126796 	0.99289609
0.0019899497 	0.013568122 	-0.024126796 	0.99289609
0.0020100503 	0.0041002624 	-0.016485517 	0.99874297
0.0020301508 	0.0041002624 	-0.016485517 	0.99874297
0.0020502513 	-0.0052143094 	-0.0064607409 	1.0023762
0.0020703518 	-0.0052143094 	-0.0064607409 	1.0023762
0.0020904523 	-0.013443065 	0.0062490138 	1.0018699
0.0021105528 	-0.013443065 	0.0062490138 	1.0018699
0.0021306533 	-0.013443065 	0.0062490138 	1.0018699
0.0021507538 	-0.019974517 	0.021262367 	0.99610282
0.0021708543 	-0.019974517 	0.021262367 	0.99610282
0.0021909548 	-0.024227765 	0.037521555 	0.98512151
0.0022110553 	-0.024227765 	0.037521555 	0.98512151
0.0022311558 	-0.025974118 	0.053395802 	0.97013301
0.0022512563 	-0.025974118 	0.053395802 	0.97013301
0.0022713568 	-0.025445858 	0.066923658 	0.95330577
0.0022914573 	-0.025445858 	0.066923658 	0.95330577
0.0023115578 	-0.025445858 	0.066923658 	0.95330577
0.0023316583 	-0.023527064 	0.075829593 	0.93765761
0.0023517588 	-0.023527064 	0.075829593 	0.93765761
0.0023718593 	-0.021777675 	0.077751281 	0.92689464
0.0023919598 	-0.021777675 	0.077751281 	0.92689464
0.0024120603 	-0.022281796 	0.071115262 	0.92405494
0.0024321608 	-0.022281796 	0.071115262 	0.92405494
0.0024522613 	-0.026962307 	0.057011206 	0.92855247
0.0024723618 	-0.026962307 	0.057011206 	0.92855247
0.0024924623 	-0.036028453 	0.040987517 	0.93315423
0.0025125628 	-0.036028453 	0.040987517 	0.93315423
0.0025326633 	-0.046860064 	0.030872872 	0.92677793
0.0025527638 	-0.046860064 	0.030872872 	0.92677793
0.0025728643 	-0.055801012 	0.029417133 	0.90633693
0.0025929648 	-0.055801012 	0.029417133 	0.90633693
0.0026130653 	-0.061706126 	0.032078593 	0.88253749
0.0026331658 	-0.061706126 	0.032078593 	0.88253749
0.0026532663 	-0.066171179 	0.035149086 	0.86501299
0.0026733668 	-0.066171179 	0.035149086 	0.86501299
0.0026934673 	-0.070751487 	0.039865721 	0.85238401
0.0027135678 	-0.070751487 	0.039865721 	0.85238401
0.0027336683 	-0.075667485 	0.046832177 	0.84343892
0.0027537688 	-0.075667485 	0.046832177 	0.84343892
0.0027738693 	-0.080644903 	0.053055866 	0.83966505
0.0027939698 	-0.080644903 	0.053055866 	0.83966505
0.0028140704 	-0.08555854 	0.056144333 	0.83898074
0.0028341709 	-0.08555854 	0.056144333 	0.83898074
0.0028542714 	-0.090247071 	0.056954811 	0.83654622
0.0028743719 	-0.094318238 	0.05726729 	0.82881969
0.0028944724 	-0.094318238 	0.05726729 	0.82881969
0.0029145729 	-0.097310964 	0.057515256 	0.81435342
0.0029346734 	-0.097310964 	0.057515256 	0.81435342
0.0029547739 	-0.098890053 	0.057032184 	0.79308086
0.0029748744 	-0.098890053 	0.057032184 	0.79308086
0.0029949749 	-0.099095283 	0.054733279 	0.76598792
0.0030150754 	-0.09796781 	0.0494918 	0.73557426
0.0030351759 	-0.09796781 	0.0494918 	0.73557426
0.0030552764 	-0.095590996 	0.040981192 	0.70527988
0.0030753769 	-0.095590996 	0.040981192 	0.70527988
0.0030954774 	-0.092130899 	0.030016745 	0.6778004
0.0031155779 	-0.087731552 	0.017874075 	0.65433404
0.0031356784 	-0.087731552 	0.017874075 	0.65433404
0.0031557789 	-0.082535761 	0.0056842672 	0.63486657
0.0031758794 	-0.082535761 	0.0056842672 	0.63486657
0.0031959799 	-0.076776987 	-0.005724998 	0.61894736
0.0032160804 	-0.070714382 	-0.015812953 	0.60624602
0.0032361809 	-0.070714382 	-0.015812953 	0.60624602
0.0032562814 	-0.064558864 	-0.024372173 	0.59627834
0.0032763819 	-0.058505271 	-0.031336898 	0.58834087
0.0032964824 	-0.058505271 	-0.031336898 	0.58834087
0.0033165829 	-0.052679375 	-0.03662924 	0.58141045
0.0033366834 	-0.047160443 	-0.040093303 	0.57442752
0.0033567839 	-0.047160443 	-0.040093303 	0.57442752
0.0033768844 	-0.042035251 	-0.041598048 	0.56662078
0.0033969849 	-0.037420054 	-0.041181172 	0.55769826
0.0034170854 	-0.037420054 	-0.041181172 	0.55769826
0.0034371859 	-0.033432126 	-0.039093608 	0.54779354
0.0034572864 	-0.030159306 	-0.035724586 	0.5372213
0.0034773869 	-0.02765562 	-0.031491598 	0.52625236
0.0034974874 	-0.02765562 	-0.031491598 	0.52625236
0.0035175879 	-0.025925363 	-0.026778594 	0.51498998
0.0035376884 	-0.024899603 	-0.021948891 	0.50334216
0.0035577889 	-0.02441446 	-0.01737664 	0.49104623
0.0035778894 	-0.02441446 	-0.01737664 	0.49104623
0.0035979899 	-0.024207003 	-0.013404517 	0.47771152
0.0036180905 	-0.023949081 	-0.010223563 	0.46286944
0.003638191 	-0.023326977 	-0.0077935019 	0.44607172
0.0036582915 	-0.023326977 	-0.0077935019 	0.44607172
0.003678392 	-0.022142428 	-0.005897475 	0.42705001
0.0036984925 	-0.020377258 	-0.0042866065 	0.4058602
0.003718593 	-0.018169921 	-0.0027977939 	0.38290153
0.0037386935 	-0.015744078 	-0.0013940438 	0.35874054
0.003758794 	-0.013323368 	-0.00014838012 	0.33392661
0.0037788945 	-0.013323368 	-0.00014838012 	0.33392661
0.003798995 	-0.011057795 	0.00080185521 	0.30880448
0.0038190955 	-0.0089996564 	0.0013269839 	0.28344261
0.003839196 	-0.0071454621 	0.0013716504 	0.25762611
0.0038592965 	-0.0054811579 	0.00098039879 	0.23090282
0.003879397 	-0.0040067449 	0.00027755662 	0.20267104
0.0038994975 	-0.0027407831 	-0.00057935492 	0.17228793
0.003919598 	-0.0016976934 	-0.0014198531 	0.13918759
0.0039396985 	-0.0008888164 	-0.002039174 	0.10301046
0.003959799 	-0.00033229011 	-0.0021262042 	0.063741893
0.0039798995 	-4.1541649e-05 	-0.0012093635 	0.02185342
0.004 	-4.1541649e-05 	-0.0012093635 	0.02185342
