0 	-0.0016509861 	0.018994387 	1.0495792
2.0100503e-05 	0.020791329 	0.0023799736 	1.0504136
4.0201005e-05 	0.020791329 	0.0023799736 	1.0504136
6.0301508e-05 	0.021002677 	-0.0075326523 	1.0510297
8.040201e-05 	0.021002677 	-0.0075326523 	1.0510297
0.00010050251 	0.021002677 	-0.0075326523 	1.0510297
0.00012060302 	0.020641905 	-0.010679373 	1.0515083
0.00014070352 	0.020641905 	-0.010679373 	1.0515083
0.00016080402 	0.020641905 	-0.010679373 	1.0515083
0.00018090452 	0.020270929 	-0.012451518 	1.0519255
0.00020100503 	0.020270929 	-0.012451518 	1.0519255
0.00022110553 	0.020270929 	-0.012451518 	1.0519255
0.00024120603 	0.019757354 	-0.013729939 	1.0522966
0.00026130653 	0.019757354 	-0.013729939 	1.0522966
0.00028140704 	0.019066079 	-0.014825376 	1.0525592
0.00030150754 	0.019066079 	-0.014825376 	1.0525592
0.00032160804 	0.019066079 	-0.014825376 	1.0525592
0.00034170854 	0.018163105 	-0.015931774 	1.0525995
0.00036180905 	0.018163105 	-0.015931774 	1.0525995
0.00038190955 	0.018163105 	-0.015931774 	1.0525995
0.00040201005 	0.016994101 	-0.017193595 	1.0523074
0.00042211055 	0.016994101 	-0.017193595 	1.0523074
0.00044221106 	0.016994101 	-0.017193595 	1.0523074
0.00046231156 	0.015491638 	-0.018697929 	1.0516259
0.00048241206 	0.015491638 	-0.018697929 	1.0516259
0.00050251256 	0.013595814 	-0.020452546 	1.0505719
0.00052261307 	0.013595814 	-0.020452546 	1.0505719
0.00054271357 	0.013595814 	-0.020452546 	1.0505719
0.00056281407 	0.011276727 	-0.022366544 	1.0492172
0.00058291457 	0.011276727 	-0.022366544 	1.0492172
0.00060301508 	0.011276727 	-0.022366544 	1.0492172
0.00062311558 	0.008558598 	-0.024244831 	1.0476326
0.00064321608 	0.008558598 	-0.024244831 	1.0476326
0.00066331658 	0.008558598 	-0.024244831 	1.0476326
0.00068341709 	0.0055342963 	-0.025794734 	1.0458011
0.00070351759 	0.0055342963 	-0.025794734 	1.0458011
0.00072361809 	0.0026917427 	-0.024337617 	1.0457438
0.00074371859 	0.0026917427 	-0.024337617 	1.0457438
0.0007638191 	0.0026917427 	-0.024337617 	1.0457438
0.0007839196 	-0.00036788862 	-0.02394642 	1.0434097
0.0008040201 	-0.00036788862 	-0.02394642 	1.0434097
0.0008241206 	-0.00036788862 	-0.02394642 	1.0434097
0.00084422111 	-0.0032931651 	-0.022497508 	1.0398601
0.00086432161 	-0.0032931651 	-0.022497508 	1.0398601
0.00088442211 	-0.0032931651 	-0.022497508 	1.0398601
0.00090452261 	-0.0060048779 	-0.020029609 	1.0344129
0.00092462312 	-0.0060048779 	-0.020029609 	1.0344129
0.00094472362 	-0.0086567922 	-0.016811987 	1.0265637
0.00096482412 	-0.0086567922 	-0.016811987 	1.0265637
0.00098492462 	-0.0086567922 	-0.016811987 	1.0265637
0.0010050251 	-0.012539992 	-0.017024098 	1.0084598
0.0010251256 	-0.012539992 	-0.017024098 	1.0084598
0.0010452261 	-0.012539992 	-0.017024098 	1.0084598
0.0010653266 	-0.015464704 	-0.013915061 	0.99316464
0.0010854271 	-0.015464704 	-0.013915061 	0.99316464
0.0011055276 	-0.015464704 	-0.013915061 	0.99316464
0.0011256281 	-0.016771458 	-0.006458889 	0.98527002
0.0011457286 	-0.016771458 	-0.006458889 	0.98527002
0.0011658291 	-0.016771458 	-0.006458889 	0.98527002
0.0011859296 	-0.018723799 	-0.0029587789 	0.96802652
0.0012060302 	-0.019945567 	-0.0065794379 	0.9575204
0.0012261307 	-0.019945567 	-0.0065794379 	0.9575204
0.0012462312 	-0.021091153 	-0.0011132766 	0.93933612
0.0012663317 	-0.021091153 	-0.0011132766 	0.93933612
0.0012864322 	-0.021091153 	-0.0011132766 	0.93933612
0.0013065327 	-0.021487496 	0.0057539437 	0.92265146
0.0013266332 	-0.021487496 	0.0057539437 	0.92265146
0.0013467337 	-0.021487496 	0.0057539437 	0.92265146
0.0013668342 	-0.019259055 	0.013041829 	0.92116879
0.0013869347 	-0.019259055 	0.013041829 	0.92116879
0.0014070352 	-0.021358914 	0.013245049 	0.90864046
0.0014271357 	-0.021066328 	0.019897978 	0.89804962
0.0014472362 	-0.021066328 	0.019897978 	0.89804962
0.0014673367 	-0.021066328 	0.019897978 	0.89804962
0.0014874372 	-0.02087684 	0.024370239 	0.89101294
0.0015075377 	-0.02087684 	0.024370239 	0.89101294
0.0015276382 	-0.020911732 	0.026190342 	0.88696497
0.0015477387 	-0.020911732 	0.026190342 	0.88696497
0.0015678392 	-0.020911732 	0.026190342 	0.88696497
0.0015879397 	-0.01781204 	0.025360419 	0.89436351
0.0016080402 	-0.01781204 	0.025360419 	0.89436351
0.0016281407 	-0.01781204 	0.025360419 	0.89436351
0.0016482412 	-0.019147285 	0.024917251 	0.8920071
0.0016683417 	-0.021796651 	0.025424699 	0.88337238
0.0016884422 	-0.022655625 	0.026165298 	0.88158924
0.0017085427 	-0.022655625 	0.026165298 	0.88158924
0.0017286432 	-0.022655625 	0.026165298 	0.88158924
0.0017487437 	-0.023694085 	0.029546377 	0.87900304
0.0017688442 	-0.023694085 	0.029546377 	0.87900304
0.0017889447 	-0.023694085 	0.029546377 	0.87900304
0.0018090452 	-0.024812253 	0.035840958 	0.87582958
0.0018291457 	-0.024812253 	0.035840958 	0.87582958
0.0018492462 	-0.025974197 	0.044173322 	0.87289437
0.0018693467 	-0.025974197 	0.044173322 	0.87289437
0.0018894472 	-0.025974197 	0.044173322 	0.87289437
0.0019095477 	-0.027198346 	0.052895241 	0.87131618
0.0019296482 	-0.027198346 	0.052895241 	0.87131618
0.0019497487 	-0.028434751 	0.060455515 	0.87200131
0.0019698492 	-0.028434751 	0.060455515 	0.87200131
0.0019899497 	-0.029519067 	0.066167223 	0.875041
0.0020100503 	-0.029519067 	0.066167223 	0.875041
0.0020301508 	-0.029519067 	0.066167223 	0.875041
0.0020502513 	-0.030281675 	0.070153836 	0.8794095
0.0020703518 	-0.030281675 	0.070153836 	0.8794095
0.0020904523 	-0.030708012 	0.072687095 	0.88343738
0.0021105528 	-0.030708012 	0.072687095 	0.88343738
0.0021306533 	-0.030708012 	0.072687095 	0.88343738
0.0021507538 	-0.030905537 	0.073583789 	0.88572653
0.0021708543 	-0.030905537 	0.073583789 	0.88572653
0.0021909548 	-0.030871396 	0.072084871 	0.88574464
0.0022110553 	-0.030871396 	0.072084871 	0.88574464
0.0022311558 	-0.030327061 	0.067103358 	0.88383629
0.0022512563 	-0.030327061 	0.067103358 	0.88383629
0.0022713568 	-0.028778097 	0.057671382 	0.88094773
0.0022914573 	-0.028778097 	0.057671382 	0.88094773
0.0023115578 	-0.028778097 	0.057671382 	0.88094773
0.0023316583 	-0.025791119 	0.043520778 	0.87833309
0.0023517588 	-0.025791119 	0.043520778 	0.87833309
0.0023718593 	-0.021331446 	0.025552736 	0.87726193
0.0023919598 	-0.021331446 	0.025552736 	0.87726193
0.0024120603 	-0.015865182 	0.0057648113 	0.87869307
0.0024321608 	-0.015865182 	0.0057648113 	0.87869307
0.0024522613 	-0.010007475 	-0.013501964 	0.88300931
0.0024723618 	-0.010007475 	-0.013501964 	0.88300931
0.0024924623 	-0.0043090861 	-0.030268858 	0.88998013
0.0025125628 	-0.0043090861 	-0.030268858 	0.88998013
0.0025326633 	0.00097357119 	-0.04348576 	0.89891038
0.0025527638 	0.00097357119 	-0.04348576 	0.89891038
0.0025728643 	0.0060392943 	-0.052967178 	0.90868945
0.0025929648 	0.0060392943 	-0.052967178 	0.90868945
0.0026130653 	0.011222403 	-0.059102457 	0.91788477
0.0026331658 	0.011222403 	-0.059102457 	0.91788477
0.0026532663 	0.016736213 	-0.062428663 	0.92488372
0.0026733668 	0.016736213 	-0.062428663 	0.92488372
0.0026934673 	0.022539037 	-0.063336966 	0.92822391
0.0027135678 	0.022539037 	-0.063336966 	0.92822391
0.0027336683 	0.028333926 	-0.06206955 	0.92695357
0.0027537688 	0.028333926 	-0.06206955 	0.92695357
0.0027738693 	0.033669353 	-0.058885532 	0.92083769
0.0027939698 	0.033669353 	-0.058885532 	0.92083769
0.0028140704 	0.038054244 	-0.054259498 	0.91032222
0.0028341709 	0.038054244 	-0.054259498 	0.91032222
0.0028542714 	0.041126013 	-0.048911996 	0.89632115
0.0028743719 	0.042800415 	-0.043620811 	0.87978422
0.0028944724 	0.042800415 	-0.043620811 	0.87978422
0.0029145729 	0.043301757 	-0.038821878 	0.86134915
0.0029346734 	0.043301757 	-0.038821878 	0.86134915
0.0029547739 	0.043066148 	-0.034144869 	0.84133174
0.0029748744 	0.043066148 	-0.034144869 	0.84133174
0.0029949749 	0.042427836 	-0.028279536 	0.82020866
0.0030150754 	0.041312971 	-0.019508542 	0.79921966
0.0030351759 	0.041312971 	-0.019508542 	0.79921966
0.0030552764 	0.039098373 	-0.0068038769 	0.78034128
0.0030753769 	0.039098373 	-0.0068038769 	0.78034128
0.0030954774 	0.035111929 	0.0093856327 	0.76539902
0.0031155779 	0.029288837 	0.02746065 	0.75501333
0.0031356784 	0.029288837 	0.02746065 	0.75501333
0.0031557789 	0.021811384 	0.046078897 	0.74807406
0.0031758794 	0.021811384 	0.046078897 	0.74807406
0.0031959799 	0.012983296 	0.064663474 	0.74221854
0.0032160804 	0.0033972777 	0.082438244 	0.73455186
0.0032361809 	0.0033972777 	0.082438244 	0.73455186
0.0032562814 	-0.0061262903 	0.097049766 	0.722411
0.0032763819 	-0.014573224 	0.10495331 	0.70497746
0.0032964824 	-0.014573224 	0.10495331 	0.70497746
0.0033165829 	-0.021090945 	0.1037125 	0.68453754
0.0033366834 	-0.025469776 	0.093720024 	0.66503019
0.0033567839 	-0.025469776 	0.093720024 	0.66503019
0.0033768844 	-0.028160247 	0.077666221 	0.64870181
0.0033969849 	-0.029865505 	0.05841717 	0.6345604
0.0034170854 	-0.029865505 	0.05841717 	0.6345604
0.0034371859 	-0.030990547 	0.037782175 	0.61953969
0.0034572864 	-0.031431015 	0.017177903 	0.60103766
0.0034773869 	-0.030918117 	-0.0013524804 	0.57919984
0.0034974874 	-0.030918117 	-0.0013524804 	0.57919984
0.0035175879 	-0.029432221 	-0.015365683 	0.55711451
0.0035376884 	-0.027057305 	-0.023186406 	0.53887618
0.0035577889 	-0.023972107 	-0.024568877 	0.52725088
0.0035778894 	-0.023972107 	-0.024568877 	0.52725088
0.0035979899 	-0.020516782 	-0.020411535 	0.52296248
0.0036180905 	-0.016982215 	-0.012241285 	0.52497574
0.003638191 	-0.013541553 	-0.0017189014 	0.53106172
0.0036582915 	-0.013541553 	-0.0017189014 	0.53106172
0.003678392 	-0.010278526 	0.0096697206 	0.53838267
0.0036984925 	-0.0072689117 	0.020731206 	0.54409502
0.003718593 	-0.0045754874 	0.030577058 	0.54574381
0.0037386935 	-0.0022366109 	0.038579913 	0.54145062
0.003758794 	-0.00028650881 	0.044325338 	0.53001789
0.0037788945 	-0.00028650881 	0.044325338 	0.53001789
0.003798995 	0.0012526124 	0.047582139 	0.51094923
0.0038190955 	0.0023703115 	0.048287318 	0.48436892
0.003839196 	0.0030658096 	0.046549252 	0.45080804
0.0038592965 	0.0033430985 	0.042667164 	0.41086664
0.003879397 	0.0032145325 	0.037142741 	0.36484419
0.0038994975 	0.0027226238 	0.030639019 	0.31253759
0.003919598 	0.0019694955 	0.023835336 	0.25341911
0.0039396985 	0.0011262653 	0.017213902 	0.1872358
0.003959799 	0.00040685534 	0.010817108 	0.11477597
0.0039798995 	1.7399594e-05 	0.0040967062 	0.038390484
0.004 	1.7399594e-05 	0.0040967062 	0.038390484
