0 	-0.001265488 	-0.014149991 	1.0762992
5.5555556e-05 	0.0040403703 	-0.01060838 	1.0841902
0.00011111111 	0.0037542266 	-0.0077814666 	1.0901821
0.00016666667 	0.0026843903 	-0.005609755 	1.0943312
0.00022222222 	0.0016802714 	-0.0038270064 	1.0969152
0.00027777778 	0.00098139879 	-0.0023760584 	1.0982502
0.00033333333 	0.00064087203 	-0.0012646868 	1.0985281
0.00038888889 	0.00067767548 	-0.00044932294 	1.0977251
0.00044444444 	0.0011255668 	0.00023389132 	1.0956511
0.0005 	0.0019899481 	0.0010510652 	1.0921419
0.00055555556 	0.0031467381 	0.0021686042 	1.0872906
0.00061111111 	0.0043031318 	0.0034964316 	1.0815005
0.00066666667 	0.0050569947 	0.0047248381 	1.0753512
0.00072222222 	0.0050320814 	0.0054944913 	1.0693566
0.00077777778 	0.0039879268 	0.0056006887 	1.0637893
0.00083333333 	0.0019410254 	0.0050511803 	1.058571
0.00088888889 	-0.00082954474 	0.0042418523 	1.0532383
0.00094444444 	-0.0037558756 	0.0041128475 	1.0468683
0.001 	-0.0060856524 	0.006419351 	1.0376937
0.0010617199 	-0.0068435173 	0.014464803 	1.0236455
0.0011225874 	-0.0057501422 	0.029204279 	1.0051714
0.0011826143 	-0.0037197988 	0.047974314 	0.9844861
0.0012418122 	-0.0018825094 	0.065955075 	0.9634286
0.0013001926 	-0.0016378175 	0.078066325 	0.94175611
0.0013577668 	-0.0051025139 	0.078352308 	0.92023397
0.0014145458 	-0.013664235 	0.062450229 	0.90291012
0.0014705407 	-0.026359266 	0.034213648 	0.89462117
0.0015257623 	-0.040509046 	0.0048728613 	0.89700655
0.0015802213 	-0.053410718 	-0.016373974 	0.9078049
0.0016339282 	-0.06355166 	-0.028328247 	0.92253431
0.0016868934 	-0.071198981 	-0.035263489 	0.93535504
0.0017391271 	-0.077522731 	-0.040864854 	0.94006187
0.0017906395 	-0.083665516 	-0.045256674 	0.93159223
0.0018414404 	-0.090649379 	-0.045993756 	0.90706804
0.0018915398 	-0.099279293 	-0.040736183 	0.86704406
0.0019409473 	-0.10992988 	-0.029453787 	0.81668263
0.0019896725 	-0.12233582 	-0.014435932 	0.76403404
0.0020377248 	-0.13547055 	0.0013882415 	0.71553573
0.0020851134 	-0.14797909 	0.015398307 	0.67412791
0.0021318476 	-0.15869026 	0.02481718 	0.64167898
0.0021779364 	-0.1662262 	0.027154917 	0.62108974
0.0022233887 	-0.16931588 	0.0224363 	0.61477055
0.0022682133 	-0.16792857 	0.01385252 	0.62109404
0.0023124189 	-0.16374184 	0.0060865696 	0.63321705
0.0023560139 	-0.15935213 	0.0028123658 	0.6427131
0.0023990069 	-0.15630442 	0.0042264704 	0.64528529
0.0024414062 	-0.15432651 	0.0070531315 	0.64300413
0.0024832199 	-0.15220488 	0.007895235 	0.64080796
0.0025244562 	-0.1490633 	0.0061341227 	0.64146993
0.002565123 	-0.14500331 	0.0031803981 	0.64449627
0.0026052281 	-0.14052996 	0.00030524355 	0.6484948
0.0026447794 	-0.1359305 	-0.0021404891 	0.65297742
0.0026837845 	-0.13125345 	-0.0042928236 	0.65804048
0.0027222509 	-0.12650369 	-0.0062249845 	0.66369935
0.0027601861 	-0.12170485 	-0.0078537902 	0.6699593
0.0027975974 	-0.11689224 	-0.009123963 	0.67698392
0.002834492 	-0.11209245 	-0.010083925 	0.68504029
0.0028708772 	-0.10726105 	-0.010830787 	0.69433779
0.0029067598 	-0.10232183 	-0.011397958 	0.70494256
0.0029421469 	-0.097180611 	-0.011759406 	0.71679127
0.0029770452 	-0.091757397 	-0.011867724 	0.72971372
0.0030114616 	-0.085999563 	-0.011680379 	0.74344262
0.0030454028 	-0.079899597 	-0.011158218 	0.75762814
0.0030788752 	-0.073481472 	-0.010259933 	0.77186474
0.0031118853 	-0.066802427 	-0.0089501085 	0.78574147
0.0031444395 	-0.059994782 	-0.0072168997 	0.79893715
0.0031765442 	-0.053278084 	-0.0050597229 	0.81107111
0.0032082055 	-0.04682706 	-0.0024927145 	0.82181985
0.0032394295 	-0.040715524 	0.00043257335 	0.83092945
0.0032702223 	-0.034985314 	0.0036438878 	0.83820824
0.0033005899 	-0.029668431 	0.0070474551 	0.84353353
0.0033305381 	-0.024750653 	0.010525788 	0.8468494
0.0033600727 	-0.020205266 	0.01394014 	0.84817647
0.0033891994 	-0.015994732 	0.017136385 	0.84758959
0.0034179239 	-0.012075172 	0.019957065 	0.84521192
0.0034462517 	-0.0084052058 	0.022255903 	0.84117864
0.0034741882 	-0.0049430354 	0.02390561 	0.83562059
0.003501739 	-0.0017183513 	0.024812466 	0.82864767
0.0035289093 	0.0012368032 	0.024912992 	0.82033557
0.0035557043 	0.0038914435 	0.024185076 	0.8107086
0.0035821293 	0.0061766024 	0.022660842 	0.79971184
0.0036081894 	0.0080283265 	0.020445278 	0.78717245
0.0036338895 	0.0093908899 	0.017731975 	0.77275268
0.0036592348 	0.010231105 	0.014799889 	0.75590465
0.00368423 	0.010549921 	0.011971888 	0.73584334
0.00370888 	0.010386911 	0.0095288409 	0.71155979
0.0037331896 	0.0098121301 	0.007606005 	0.6818868
0.0037571635 	0.0089095507 	0.0061361132 	0.64561731
0.0037808063 	0.0077647531 	0.0049020016 	0.60167764
0.0038041226 	0.006465408 	0.0037022189 	0.54939595
0.0038271169 	0.0051117352 	0.002524483 	0.48890743
0.0038497936 	0.0038331466 	0.0015566413 	0.42157921
0.0038721572 	0.0027235459 	0.00098884051 	0.35008428
0.0038942119 	0.0018026532 	0.00077783858 	0.27780986
0.003915962 	0.0010655774 	0.00063223911 	0.20785712
0.0039374118 	0.00050801923 	0.00024896304 	0.14226436
0.0039585653 	0.00014007967 	-0.00037253008 	0.081802681
0.0039794267 	-9.4166178e-06 	-0.00067507241 	0.026181958
0.004 	2.1204355e-05 	-0.0016486444 	0.0243957
