0 	-0.054491706 	-0.036683286 	0.99161863
2.0100503e-05 	-0.054491706 	-0.036683286 	0.99161863
4.0201005e-05 	-0.054491706 	-0.036683286 	0.99161863
6.0301508e-05 	-0.064873966 	-0.0073782433 	0.98994156
8.040201e-05 	-0.064873966 	-0.0073782433 	0.98994156
0.00010050251 	-0.064873966 	-0.0073782433 	0.98994156
0.00012060302 	-0.055383188 	0.025330478 	0.98456294
0.00014070352 	-0.055383188 	0.025330478 	0.98456294
0.00016080402 	-0.055383188 	0.025330478 	0.98456294
0.00018090452 	-0.055349393 	0.022817619 	0.98338419
0.00020100503 	-0.055349393 	0.022817619 	0.98338419
0.00022110553 	-0.064397081 	0.0061778177 	0.98714807
0.00024120603 	-0.063637944 	0.0090276714 	0.98594071
0.00026130653 	-0.063637944 	0.0090276714 	0.98594071
0.00028140704 	-0.053929175 	0.021071757 	0.98139743
0.00030150754 	-0.062618643 	0.011120434 	0.98484626
0.00032160804 	-0.062618643 	0.011120434 	0.98484626
0.00034170854 	-0.061214277 	0.012821485 	0.98383672
0.00036180905 	-0.061214277 	0.012821485 	0.98383672
0.00038190955 	-0.052897757 	0.020788812 	0.98064052
0.00040201005 	-0.051652743 	0.020688022 	0.98006182
0.00042211055 	-0.051652743 	0.020688022 	0.98006182
0.00044221106 	-0.051652743 	0.020688022 	0.98006182
0.00046231156 	-0.050197788 	0.020728054 	0.97960796
0.00048241206 	-0.050197788 	0.020728054 	0.97960796
0.00050251256 	-0.048600996 	0.020891288 	0.97917288
0.00052261307 	-0.048600996 	0.020891288 	0.97917288
0.00054271357 	-0.048600996 	0.020891288 	0.97917288
0.00056281407 	-0.046940819 	0.021054503 	0.97860634
0.00058291457 	-0.046940819 	0.021054503 	0.97860634
0.00060301508 	-0.046940819 	0.021054503 	0.97860634
0.00062311558 	-0.045292073 	0.020970995 	0.97776161
0.00064321608 	-0.045292073 	0.020970995 	0.97776161
0.00066331658 	-0.045292073 	0.020970995 	0.97776161
0.00068341709 	-0.046331337 	0.018712938 	0.97515444
0.00070351759 	-0.046331337 	0.018712938 	0.97515444
0.00072361809 	-0.04395808 	0.01776398 	0.97258114
0.00074371859 	-0.04395808 	0.01776398 	0.97258114
0.0007638191 	-0.042153704 	0.018850956 	0.97470068
0.0007839196 	-0.040592327 	0.016622376 	0.97217882
0.0008040201 	-0.040592327 	0.016622376 	0.97217882
0.0008241206 	-0.040592327 	0.016622376 	0.97217882
0.00084422111 	-0.039788569 	0.013613472 	0.96536504
0.00086432161 	-0.039788569 	0.013613472 	0.96536504
0.00088442211 	-0.039788569 	0.013613472 	0.96536504
0.00090452261 	-0.037873871 	0.010797724 	0.96019758
0.00092462312 	-0.037873871 	0.010797724 	0.96019758
0.00094472362 	-0.036196357 	0.0075153013 	0.95375844
0.00096482412 	-0.036196357 	0.0075153013 	0.95375844
0.00098492462 	-0.036196357 	0.0075153013 	0.95375844
0.0010050251 	-0.03479868 	0.0033617835 	0.9456169
0.0010251256 	-0.03479868 	0.0033617835 	0.9456169
0.0010452261 	-0.03479868 	0.0033617835 	0.9456169
0.0010653266 	-0.034105328 	-0.0023225051 	0.93584953
0.0010854271 	-0.034105328 	-0.0023225051 	0.93584953
0.0011055276 	-0.034105328 	-0.0023225051 	0.93584953
0.0011256281 	-0.033912117 	-0.0093014381 	0.92571979
0.0011457286 	-0.033912117 	-0.0093014381 	0.92571979
0.0011658291 	-0.033912117 	-0.0093014381 	0.92571979
0.0011859296 	-0.033824373 	-0.017190881 	0.9160609
0.0012060302 	-0.033824373 	-0.017190881 	0.9160609
0.0012261307 	-0.033824373 	-0.017190881 	0.9160609
0.0012462312 	-0.033467856 	-0.025405628 	0.90784713
0.0012663317 	-0.033467856 	-0.025405628 	0.90784713
0.0012864322 	-0.033467856 	-0.025405628 	0.90784713
0.0013065327 	-0.032668295 	-0.033361101 	0.90206208
0.0013266332 	-0.032668295 	-0.033361101 	0.90206208
0.0013467337 	-0.032668295 	-0.033361101 	0.90206208
0.0013668342 	-0.031416545 	-0.040377403 	0.89953186
0.0013869347 	-0.031416545 	-0.040377403 	0.89953186
0.0014070352 	-0.031416545 	-0.040377403 	0.89953186
0.0014271357 	-0.029929628 	-0.045821988 	0.90039435
0.0014472362 	-0.029929628 	-0.045821988 	0.90039435
0.0014673367 	-0.029929628 	-0.045821988 	0.90039435
0.0014874372 	-0.028681626 	-0.049269121 	0.90350294
0.0015075377 	-0.028681626 	-0.049269121 	0.90350294
0.0015276382 	-0.028216767 	-0.05057604 	0.90674861
0.0015477387 	-0.028216767 	-0.05057604 	0.90674861
0.0015678392 	-0.028216767 	-0.05057604 	0.90674861
0.0015879397 	-0.028774438 	-0.049921117 	0.90818524
0.0016080402 	-0.028774438 	-0.049921117 	0.90818524
0.0016281407 	-0.028774438 	-0.049921117 	0.90818524
0.0016482412 	-0.030092128 	-0.047840621 	0.9068333
0.0016683417 	-0.030092128 	-0.047840621 	0.9068333
0.0016884422 	-0.031690244 	-0.045196559 	0.90250308
0.0017085427 	-0.031690244 	-0.045196559 	0.90250308
0.0017286432 	-0.031690244 	-0.045196559 	0.90250308
0.0017487437 	-0.03328845 	-0.042916968 	0.8952682
0.0017688442 	-0.03328845 	-0.042916968 	0.8952682
0.0017889447 	-0.03328845 	-0.042916968 	0.8952682
0.0018090452 	-0.034851882 	-0.041526578 	0.88545196
0.0018291457 	-0.034851882 	-0.041526578 	0.88545196
0.0018492462 	-0.036404646 	-0.04087955 	0.87392452
0.0018693467 	-0.036404646 	-0.04087955 	0.87392452
0.0018894472 	-0.036404646 	-0.04087955 	0.87392452
0.0019095477 	-0.037891906 	-0.040374507 	0.86204895
0.0019296482 	-0.037891906 	-0.040374507 	0.86204895
0.0019497487 	-0.039140754 	-0.039378278 	0.85125742
0.0019698492 	-0.039140754 	-0.039378278 	0.85125742
0.0019899497 	-0.039899792 	-0.037526211 	0.84263035
0.0020100503 	-0.039899792 	-0.037526211 	0.84263035
0.0020301508 	-0.039899792 	-0.037526211 	0.84263035
0.0020502513 	-0.039922592 	-0.034809751 	0.83670351
0.0020703518 	-0.039922592 	-0.034809751 	0.83670351
0.0020904523 	-0.039035468 	-0.0315024 	0.83349895
0.0021105528 	-0.039035468 	-0.0315024 	0.83349895
0.0021306533 	-0.039035468 	-0.0315024 	0.83349895
0.0021507538 	-0.037163113 	-0.028005219 	0.83268263
0.0021708543 	-0.037163113 	-0.028005219 	0.83268263
0.0021909548 	-0.034321573 	-0.024705591 	0.83373465
0.0022110553 	-0.034321573 	-0.024705591 	0.83373465
0.0022311558 	-0.030598138 	-0.021894887 	0.83608676
0.0022512563 	-0.030598138 	-0.021894887 	0.83608676
0.0022713568 	-0.026120709 	-0.019738064 	0.83920258
0.0022914573 	-0.026120709 	-0.019738064 	0.83920258
0.0023115578 	-0.026120709 	-0.019738064 	0.83920258
0.0023316583 	-0.021039981 	-0.018295269 	0.84261145
0.0023517588 	-0.021039981 	-0.018295269 	0.84261145
0.0023718593 	-0.015520703 	-0.017548268 	0.84592161
0.0023919598 	-0.015520703 	-0.017548268 	0.84592161
0.0024120603 	-0.009731544 	-0.017431126 	0.84879975
0.0024321608 	-0.009731544 	-0.017431126 	0.84879975
0.0024522613 	-0.0038559023 	-0.017854253 	0.85096852
0.0024723618 	-0.0038559023 	-0.017854253 	0.85096852
0.0024924623 	0.0019071614 	-0.018725336 	0.85221491
0.0025125628 	0.0019071614 	-0.018725336 	0.85221491
0.0025326633 	0.0073319132 	-0.019965011 	0.85239712
0.0025527638 	0.0073319132 	-0.019965011 	0.85239712
0.0025728643 	0.012204013 	-0.02149376 	0.85146489
0.0025929648 	0.012204013 	-0.02149376 	0.85146489
0.0026130653 	0.016362765 	-0.023241909 	0.84942491
0.0026331658 	0.016362765 	-0.023241909 	0.84942491
0.0026532663 	0.019697298 	-0.025128239 	0.84631556
0.0026733668 	0.019697298 	-0.025128239 	0.84631556
0.0026934673 	0.02217443 	-0.027030332 	0.84218506
0.0027135678 	0.02217443 	-0.027030332 	0.84218506
0.0027336683 	0.023812505 	-0.028784187 	0.83702771
0.0027537688 	0.023812505 	-0.028784187 	0.83702771
0.0027738693 	0.024641437 	-0.030183631 	0.8307222
0.0027939698 	0.024641437 	-0.030183631 	0.8307222
0.0028140704 	0.024672987 	-0.031014568 	0.82297393
0.0028341709 	0.024672987 	-0.031014568 	0.82297393
0.0028542714 	0.023881347 	-0.031144037 	0.81334516
0.0028743719 	0.022229671 	-0.030655398 	0.80144066
0.0028944724 	0.022229671 	-0.030655398 	0.80144066
0.0029145729 	0.019726501 	-0.029959996 	0.78720323
0.0029346734 	0.019726501 	-0.029959996 	0.78720323
0.0029547739 	0.016463239 	-0.029745509 	0.77113687
0.0029748744 	0.016463239 	-0.029745509 	0.77113687
0.0029949749 	0.01261598 	-0.030721436 	0.75430719
0.0030150754 	0.0084251221 	-0.033309865 	0.73812322
0.0030351759 	0.0084251221 	-0.033309865 	0.73812322
0.0030552764 	0.004146521 	-0.037506563 	0.72395603
0.0030753769 	0.004146521 	-0.037506563 	0.72395603
0.0030954774 	1.3074073e-05 	-0.042945551 	0.71265235
0.0031155779 	-0.0037991755 	-0.049004784 	0.70414379
0.0031356784 	-0.0037991755 	-0.049004784 	0.70414379
0.0031557789 	-0.0071598167 	-0.054903987 	0.69746755
0.0031758794 	-0.0071598167 	-0.054903987 	0.69746755
0.0031959799 	-0.009930811 	-0.059821076 	0.69126429
0.0032160804 	-0.011946062 	-0.062996959 	0.68439578
0.0032361809 	-0.011946062 	-0.062996959 	0.68439578
0.0032562814 	-0.013057432 	-0.06378224 	0.67635278
0.0032763819 	-0.013242106 	-0.061698212 	0.66731547
0.0032964824 	-0.013242106 	-0.061698212 	0.66731547
0.0033165829 	-0.012566554 	-0.056527955 	0.65789483
0.0033366834 	-0.011140289 	-0.04834357 	0.64878538
0.0033567839 	-0.011140289 	-0.04834357 	0.64878538
0.0033768844 	-0.0091449593 	-0.037445211 	0.64048656
0.0033969849 	-0.0067890081 	-0.024267497 	0.633221
0.0034170854 	-0.0067890081 	-0.024267497 	0.633221
0.0034371859 	-0.004282615 	-0.0093311261 	0.6269848
0.0034572864 	-0.0018086034 	0.006775062 	0.62164958
0.0034773869 	0.00056581566 	0.023449365 	0.61687904
0.0034974874 	0.00056581566 	0.023449365 	0.61687904
0.0035175879 	0.0027538058 	0.040035946 	0.61198512
0.0035376884 	0.004636215 	0.055778315 	0.60592259
0.0035577889 	0.0061941356 	0.0697968 	0.59755968
0.0035778894 	0.0061941356 	0.0697968 	0.59755968
0.0035979899 	0.0074659133 	0.081159542 	0.58625228
0.0036180905 	0.0084837243 	0.089015721 	0.57237211
0.003638191 	0.0092518682 	0.092740203 	0.55739395
0.0036582915 	0.0092518682 	0.092740203 	0.55739395
0.003678392 	0.0097487349 	0.092055432 	0.54329156
0.0036984925 	0.0099295916 	0.087093019 	0.53163987
0.003718593 	0.0097661196 	0.078376709 	0.52281178
0.0037386935 	0.0092554583 	0.06675432 	0.5156902
0.003758794 	0.008422247 	0.053288375 	0.50791866
0.0037788945 	0.008422247 	0.053288375 	0.50791866
0.003798995 	0.0073198164 	0.039125065 	0.49648811
0.0038190955 	0.0060289748 	0.025361485 	0.47841308
0.003839196 	0.0046520545 	0.012944808 	0.4513279
0.0038592965 	0.0033019637 	0.0026152947 	0.41392411
0.003879397 	0.0020905764 	-0.0051223847 	0.36617559
0.0038994975 	0.0011096529 	-0.010022505 	0.30927228
0.003919598 	0.00041724987 	-0.012087132 	0.24533506
0.0039396985 	2.553858e-05 	-0.011508906 	0.17689775
0.003959799 	-9.9025538e-05 	-0.0085691136 	0.10635174
0.0039798995 	-3.5283474e-05 	-0.003528759 	0.035469832
0.004 	-3.5283474e-05 	-0.003528759 	0.035469832
