0 	0.028177956 	-0.0013974134 	1.0818106
2.0100503e-05 	-0.0019049478 	0.026863776 	1.0893194
4.0201005e-05 	-0.0019049478 	0.026863776 	1.0893194
6.0301508e-05 	-0.015759884 	0.024700186 	1.0980235
8.040201e-05 	-0.015759884 	0.024700186 	1.0980235
0.00010050251 	-0.015759884 	0.024700186 	1.0980235
0.00012060302 	-0.021261359 	0.028039515 	1.1052938
0.00014070352 	-0.021261359 	0.028039515 	1.1052938
0.00016080402 	-0.021261359 	0.028039515 	1.1052938
0.00018090452 	-0.026279638 	0.034301887 	1.108914
0.00020100503 	-0.026279638 	0.034301887 	1.108914
0.00022110553 	-0.026279638 	0.034301887 	1.108914
0.00024120603 	-0.033595298 	0.027543664 	1.1110565
0.00026130653 	-0.033595298 	0.027543664 	1.1110565
0.00028140704 	-0.038366322 	0.031977527 	1.1089028
0.00030150754 	-0.038366322 	0.031977527 	1.1089028
0.00032160804 	-0.038366322 	0.031977527 	1.1089028
0.00034170854 	-0.04176377 	0.03215833 	1.1041494
0.00036180905 	-0.04176377 	0.03215833 	1.1041494
0.00038190955 	-0.04176377 	0.03215833 	1.1041494
0.00040201005 	-0.043370986 	0.028143475 	1.0973853
0.00042211055 	-0.043370986 	0.028143475 	1.0973853
0.00044221106 	-0.043370986 	0.028143475 	1.0973853
0.00046231156 	-0.043566684 	0.021395614 	1.0890076
0.00048241206 	-0.043566684 	0.021395614 	1.0890076
0.00050251256 	-0.042989922 	0.013693476 	1.079286
0.00052261307 	-0.042989922 	0.013693476 	1.079286
0.00054271357 	-0.042989922 	0.013693476 	1.079286
0.00056281407 	-0.042990309 	0.0072858098 	1.065435
0.00058291457 	-0.042990309 	0.0072858098 	1.065435
0.00060301508 	-0.042990309 	0.0072858098 	1.065435
0.00062311558 	-0.042689977 	0.00030403937 	1.0543594
0.00064321608 	-0.042689977 	0.00030403937 	1.0543594
0.00066331658 	-0.042689977 	0.00030403937 	1.0543594
0.00068341709 	-0.039813883 	-0.0059008561 	1.0445967
0.00070351759 	-0.039813883 	-0.0059008561 	1.0445967
0.00072361809 	-0.038607001 	-0.010182601 	1.0326073
0.00074371859 	-0.038607001 	-0.010182601 	1.0326073
0.0007638191 	-0.038607001 	-0.010182601 	1.0326073
0.0007839196 	-0.037390307 	-0.013172835 	1.0214122
0.0008040201 	-0.037390307 	-0.013172835 	1.0214122
0.0008241206 	-0.037390307 	-0.013172835 	1.0214122
0.00084422111 	-0.036154877 	-0.014820138 	1.0116761
0.00086432161 	-0.036154877 	-0.014820138 	1.0116761
0.00088442211 	-0.036154877 	-0.014820138 	1.0116761
0.00090452261 	-0.034918812 	-0.015138544 	1.00399
0.00092462312 	-0.034918812 	-0.015138544 	1.00399
0.00094472362 	-0.033637163 	-0.014128427 	0.99878049
0.00096482412 	-0.033637163 	-0.014128427 	0.99878049
0.00098492462 	-0.033637163 	-0.014128427 	0.99878049
0.0010050251 	-0.032075899 	-0.011700887 	0.99606201
0.0010251256 	-0.032075899 	-0.011700887 	0.99606201
0.0010452261 	-0.032075899 	-0.011700887 	0.99606201
0.0010653266 	-0.030154716 	-0.0079468039 	0.99636245
0.0010854271 	-0.030154716 	-0.0079468039 	0.99636245
0.0011055276 	-0.031709515 	-0.010236473 	0.99250764
0.0011256281 	-0.02885708 	-0.0064564788 	0.99355847
0.0011457286 	-0.02885708 	-0.0064564788 	0.99355847
0.0011658291 	-0.027649577 	-0.0033741594 	0.99914728
0.0011859296 	-0.024352922 	0.0017495036 	1.0036697
0.0012060302 	-0.024352922 	0.0017495036 	1.0036697
0.0012261307 	-0.025438523 	-0.0022212754 	0.99614087
0.0012462312 	-0.021312468 	0.0023031932 	0.99960914
0.0012663317 	-0.021312468 	0.0023031932 	0.99960914
0.0012864322 	-0.020066877 	0.0072206294 	1.0090838
0.0013065327 	-0.014780155 	0.012851261 	1.0144914
0.0013266332 	-0.014780155 	0.012851261 	1.0144914
0.0013467337 	-0.014780155 	0.012851261 	1.0144914
0.0013668342 	-0.0086784013 	0.018393007 	1.0190148
0.0013869347 	-0.0086784013 	0.018393007 	1.0190148
0.0014070352 	-0.0086784013 	0.018393007 	1.0190148
0.0014271357 	-0.0020972617 	0.023615378 	1.0219249
0.0014472362 	-0.0020972617 	0.023615378 	1.0219249
0.0014673367 	-0.0020972617 	0.023615378 	1.0219249
0.0014874372 	0.0045863604 	0.028345565 	1.0227291
0.0015075377 	0.0045863604 	0.028345565 	1.0227291
0.0015276382 	0.011045407 	0.032486727 	1.0211825
0.0015477387 	0.011045407 	0.032486727 	1.0211825
0.0015678392 	0.011045407 	0.032486727 	1.0211825
0.0015879397 	0.017067544 	0.035919754 	1.01726
0.0016080402 	0.017067544 	0.035919754 	1.01726
0.0016281407 	0.017067544 	0.035919754 	1.01726
0.0016482412 	0.022545996 	0.038501521 	1.0111041
0.0016683417 	0.022545996 	0.038501521 	1.0111041
0.0016884422 	0.027452558 	0.040130761 	1.0029902
0.0017085427 	0.027452558 	0.040130761 	1.0029902
0.0017286432 	0.027452558 	0.040130761 	1.0029902
0.0017487437 	0.031836333 	0.040891231 	0.99328985
0.0017688442 	0.031836333 	0.040891231 	0.99328985
0.0017889447 	0.031836333 	0.040891231 	0.99328985
0.0018090452 	0.035815384 	0.04114824 	0.98243886
0.0018291457 	0.035815384 	0.04114824 	0.98243886
0.0018492462 	0.03952782 	0.04153329 	0.97092597
0.0018693467 	0.03952782 	0.04153329 	0.97092597
0.0018894472 	0.03952782 	0.04153329 	0.97092597
0.0019095477 	0.04308215 	0.042738724 	0.95928375
0.0019296482 	0.04308215 	0.042738724 	0.95928375
0.0019497487 	0.046540587 	0.045265659 	0.94802205
0.0019698492 	0.046540587 	0.045265659 	0.94802205
0.0019899497 	0.049924667 	0.049218573 	0.93749754
0.0020100503 	0.049924667 	0.049218573 	0.93749754
0.0020301508 	0.049924667 	0.049218573 	0.93749754
0.0020502513 	0.053220434 	0.054272916 	0.92781422
0.0020703518 	0.053220434 	0.054272916 	0.92781422
0.0020904523 	0.056375465 	0.059796088 	0.91883556
0.0021105528 	0.056375465 	0.059796088 	0.91883556
0.0021306533 	0.056375465 	0.059796088 	0.91883556
0.0021507538 	0.059279891 	0.065045054 	0.91027105
0.0021708543 	0.059279891 	0.065045054 	0.91027105
0.0021909548 	0.061767279 	0.06935759 	0.90180969
0.0022110553 	0.061767279 	0.06935759 	0.90180969
0.0022311558 	0.063666049 	0.072269071 	0.89323998
0.0022512563 	0.063666049 	0.072269071 	0.89323998
0.0022713568 	0.064810395 	0.073561997 	0.8845807
0.0022914573 	0.064810395 	0.073561997 	0.8845807
0.0023115578 	0.064810395 	0.073561997 	0.8845807
0.0023316583 	0.065050091 	0.073256213 	0.8762236
0.0023517588 	0.065050091 	0.073256213 	0.8762236
0.0023718593 	0.064268717 	0.071596491 	0.86903201
0.0023919598 	0.064268717 	0.071596491 	0.86903201
0.0024120603 	0.062407859 	0.06902617 	0.86425518
0.0024321608 	0.062407859 	0.06902617 	0.86425518
0.0024522613 	0.05953797 	0.066114216 	0.8630926
0.0024723618 	0.05953797 	0.066114216 	0.8630926
0.0024924623 	0.05590283 	0.063378725 	0.86601074
0.0025125628 	0.05590283 	0.063378725 	0.86601074
0.0025326633 	0.051925288 	0.061023208 	0.87215605
0.0025527638 	0.051925288 	0.061023208 	0.87215605
0.0025728643 	0.048137895 	0.05877143 	0.8794822
0.0025929648 	0.048137895 	0.05877143 	0.8794822
0.0026130653 	0.04503634 	0.055936229 	0.88556614
0.0026331658 	0.04503634 	0.055936229 	0.88556614
0.0026532663 	0.042900964 	0.05171754 	0.88862578
0.0026733668 	0.042900964 	0.05171754 	0.88862578
0.0026934673 	0.041706566 	0.045508241 	0.88808299
0.0027135678 	0.041706566 	0.045508241 	0.88808299
0.0027336683 	0.041125115 	0.037067382 	0.88444692
0.0027537688 	0.041125115 	0.037067382 	0.88444692
0.0027738693 	0.040743776 	0.026569148 	0.87873292
0.0027939698 	0.040743776 	0.026569148 	0.87873292
0.0028140704 	0.040217147 	0.014429588 	0.8718983
0.0028341709 	0.040217147 	0.014429588 	0.8718983
0.0028542714 	0.03923942 	0.001232332 	0.86441418
0.0028743719 	0.037806572 	-0.012412868 	0.85623225
0.0028944724 	0.037806572 	-0.012412868 	0.85623225
0.0029145729 	0.03618748 	-0.025993698 	0.8469328
0.0029346734 	0.03618748 	-0.025993698 	0.8469328
0.0029547739 	0.034693925 	-0.039231141 	0.83595844
0.0029748744 	0.034693925 	-0.039231141 	0.83595844
0.0029949749 	0.033627629 	-0.052069442 	0.82287237
0.0030150754 	0.033120213 	-0.064488242 	0.80758664
0.0030351759 	0.033120213 	-0.064488242 	0.80758664
0.0030552764 	0.033040874 	-0.076351161 	0.79054689
0.0030753769 	0.033040874 	-0.076351161 	0.79054689
0.0030954774 	0.033029043 	-0.087362143 	0.77273525
0.0031155779 	0.032613157 	-0.097169561 	0.75545501
0.0031356784 	0.032613157 	-0.097169561 	0.75545501
0.0031557789 	0.031347374 	-0.10542041 	0.73996466
0.0031758794 	0.031347374 	-0.10542041 	0.73996466
0.0031959799 	0.028883612 	-0.11164205 	0.72720471
0.0032160804 	0.024956621 	-0.11500034 	0.71785354
0.0032361809 	0.024956621 	-0.11500034 	0.71785354
0.0032562814 	0.019327167 	-0.11421202 	0.71266772
0.0032763819 	0.011753157 	-0.10788542 	0.71267394
0.0032964824 	0.011753157 	-0.10788542 	0.71267394
0.0033165829 	0.002161504 	-0.095307533 	0.71864402
0.0033366834 	-0.0091072297 	-0.077257705 	0.72982085
0.0033567839 	-0.0091072297 	-0.077257705 	0.72982085
0.0033768844 	-0.021070104 	-0.056129802 	0.74276023
0.0033969849 	-0.032172399 	-0.03525246 	0.75145147
0.0034170854 	-0.032172399 	-0.03525246 	0.75145147
0.0034371859 	-0.040963651 	-0.017605787 	0.74905241
0.0034572864 	-0.046755752 	-0.0045768237 	0.73049982
0.0034773869 	-0.049709431 	0.0046846795 	0.69466817
0.0034974874 	-0.049709431 	0.0046846795 	0.69466817
0.0035175879 	-0.050810088 	0.012601542 	0.64535243
0.0035376884 	-0.051526504 	0.021406309 	0.58978148
0.0035577889 	-0.052823687 	0.03148732 	0.53577294
0.0035778894 	-0.052823687 	0.03148732 	0.53577294
0.0035979899 	-0.054728975 	0.041372089 	0.48851782
0.0036180905 	-0.056526316 	0.049002939 	0.44963595
0.003638191 	-0.057295525 	0.052941986 	0.41846146
0.0036582915 	-0.057295525 	0.052941986 	0.41846146
0.003678392 	-0.056470806 	0.052630578 	0.39397023
0.0036984925 	-0.054051718 	0.048157342 	0.37557625
0.003718593 	-0.050441603 	0.040049073 	0.36283548
0.0037386935 	-0.046174477 	0.029126501 	0.35491366
0.003758794 	-0.041723193 	0.016341286 	0.35039408
0.0037788945 	-0.041723193 	0.016341286 	0.35039408
0.003798995 	-0.037312966 	0.0026294901 	0.34742168
0.0038190955 	-0.032948725 	-0.011160603 	0.34393995
0.003839196 	-0.028643139 	-0.024211552 	0.33755257
0.0038592965 	-0.024314095 	-0.035673494 	0.32579839
0.003879397 	-0.019856228 	-0.04454879 	0.30618318
0.0038994975 	-0.015219135 	-0.049662889 	0.27639014
0.003919598 	-0.010474898 	-0.049750002 	0.23464804
0.0039396985 	-0.0059582132 	-0.043842225 	0.18033613
0.003959799 	-0.0022727098 	-0.031502205 	0.11428468
0.0039798995 	-0.00022675251 	-0.012742591 	0.039318645
0.004 	-0.00022675251 	-0.012742591 	0.039318645
