0 	0.0186618 	-0.0066321818 	1.0982619
2.0100503e-05 	0.010342706 	0.021124581 	1.0974731
4.0201005e-05 	0.010342706 	0.021124581 	1.0974731
6.0301508e-05 	0.0025616318 	0.027127911 	1.0965043
8.040201e-05 	0.0025616318 	0.027127911 	1.0965043
0.00010050251 	0.0025616318 	0.027127911 	1.0965043
0.00012060302 	0.0020219069 	0.030921253 	1.0951025
0.00014070352 	0.0020219069 	0.030921253 	1.0951025
0.00016080402 	0.0020219069 	0.030921253 	1.0951025
0.00018090452 	0.0034209616 	0.034614127 	1.0929617
0.00020100503 	0.0034209616 	0.034614127 	1.0929617
0.00022110553 	0.0034209616 	0.034614127 	1.0929617
0.00024120603 	0.0056700632 	0.038265747 	1.0897662
0.00026130653 	0.0056700632 	0.038265747 	1.0897662
0.00028140704 	0.0082681238 	0.041898556 	1.0852
0.00030150754 	0.0082681238 	0.041898556 	1.0852
0.00032160804 	0.0082681238 	0.041898556 	1.0852
0.00034170854 	0.010813349 	0.045510274 	1.0789478
0.00036180905 	0.010813349 	0.045510274 	1.0789478
0.00038190955 	0.010813349 	0.045510274 	1.0789478
0.00040201005 	0.012896471 	0.049005857 	1.0707198
0.00042211055 	0.012896471 	0.049005857 	1.0707198
0.00044221106 	0.012896471 	0.049005857 	1.0707198
0.00046231156 	0.014099143 	0.052147648 	1.0603831
0.00048241206 	0.014099143 	0.052147648 	1.0603831
0.00050251256 	0.014060424 	0.054572498 	1.0481678
0.00052261307 	0.014060424 	0.054572498 	1.0481678
0.00054271357 	0.014060424 	0.054572498 	1.0481678
0.00056281407 	0.012595709 	0.055934661 	1.0347929
0.00058291457 	0.012595709 	0.055934661 	1.0347929
0.00060301508 	0.012595709 	0.055934661 	1.0347929
0.00062311558 	0.0097847324 	0.056117744 	1.021375
0.00064321608 	0.0097847324 	0.056117744 	1.021375
0.00066331658 	0.0097847324 	0.056117744 	1.021375
0.00068341709 	0.0059564393 	0.055366688 	1.0091541
0.00070351759 	0.0059564393 	0.055366688 	1.0091541
0.00072361809 	0.0015498521 	0.05414788 	0.99913566
0.00074371859 	0.0015498521 	0.05414788 	0.99913566
0.0007638191 	0.0015498521 	0.05414788 	0.99913566
0.0007839196 	-0.0031365475 	0.05273042 	0.99173778
0.0008040201 	-0.0031365475 	0.05273042 	0.99173778
0.0008241206 	-0.0031365475 	0.05273042 	0.99173778
0.00084422111 	-0.0081378536 	0.050744219 	0.98667697
0.00086432161 	-0.0081378536 	0.050744219 	0.98667697
0.00088442211 	-0.0081378536 	0.050744219 	0.98667697
0.00090452261 	-0.013666687 	0.047304571 	0.98336869
0.00092462312 	-0.013666687 	0.047304571 	0.98336869
0.00094472362 	-0.019720095 	0.041690769 	0.98152708
0.00096482412 	-0.019720095 	0.041690769 	0.98152708
0.00098492462 	-0.019720095 	0.041690769 	0.98152708
0.0010050251 	-0.026065725 	0.033745792 	0.98112119
0.0010251256 	-0.026065725 	0.033745792 	0.98112119
0.0010452261 	-0.026065725 	0.033745792 	0.98112119
0.0010653266 	-0.031889171 	0.024572883 	0.98210987
0.0010854271 	-0.040705228 	0.019448435 	0.98032922
0.0011055276 	-0.040705228 	0.019448435 	0.98032922
0.0011256281 	-0.0451616 	0.011710977 	0.98157117
0.0011457286 	-0.0451616 	0.011710977 	0.98157117
0.0011658291 	-0.0451616 	0.011710977 	0.98157117
0.0011859296 	-0.048050492 	0.0072495832 	0.98161223
0.0012060302 	-0.048050492 	0.0072495832 	0.98161223
0.0012261307 	-0.048050492 	0.0072495832 	0.98161223
0.0012462312 	-0.049455519 	0.006679547 	0.97955332
0.0012663317 	-0.049455519 	0.006679547 	0.97955332
0.0012864322 	-0.049455519 	0.006679547 	0.97955332
0.0013065327 	-0.049531356 	0.0096977594 	0.97520295
0.0013266332 	-0.049531356 	0.0096977594 	0.97520295
0.0013467337 	-0.049531356 	0.0096977594 	0.97520295
0.0013668342 	-0.048608891 	0.01530621 	0.96897162
0.0013869347 	-0.048608891 	0.01530621 	0.96897162
0.0014070352 	-0.048608891 	0.01530621 	0.96897162
0.0014271357 	-0.04715186 	0.022103155 	0.96159452
0.0014472362 	-0.04715186 	0.022103155 	0.96159452
0.0014673367 	-0.04715186 	0.022103155 	0.96159452
0.0014874372 	-0.045700511 	0.02863441 	0.95386214
0.0015075377 	-0.045700511 	0.02863441 	0.95386214
0.0015276382 	-0.044688895 	0.033656331 	0.94641372
0.0015477387 	-0.044688895 	0.033656331 	0.94641372
0.0015678392 	-0.044688895 	0.033656331 	0.94641372
0.0015879397 	-0.044327127 	0.03627327 	0.93969097
0.0016080402 	-0.044327127 	0.03627327 	0.93969097
0.0016281407 	-0.044327127 	0.03627327 	0.93969097
0.0016482412 	-0.044587503 	0.035930619 	0.93393373
0.0016683417 	-0.044587503 	0.035930619 	0.93393373
0.0016884422 	-0.04528288 	0.032262937 	0.92910122
0.0017085427 	-0.04528288 	0.032262937 	0.92910122
0.0017286432 	-0.04528288 	0.032262937 	0.92910122
0.0017487437 	-0.046150374 	0.024934412 	0.9246842
0.0017688442 	-0.046150374 	0.024934412 	0.9246842
0.0017889447 	-0.046150374 	0.024934412 	0.9246842
0.0018090452 	-0.046931476 	0.01360165 	0.91968728
0.0018291457 	-0.046931476 	0.01360165 	0.91968728
0.0018492462 	-0.047443676 	-0.0017623437 	0.91319028
0.0018693467 	-0.047443676 	-0.0017623437 	0.91319028
0.0018894472 	-0.047443676 	-0.0017623437 	0.91319028
0.0019095477 	-0.047424271 	-0.020193143 	0.90527071
0.0019296482 	-0.047424271 	-0.020193143 	0.90527071
0.0019497487 	-0.046733622 	-0.039258337 	0.89734794
0.0019698492 	-0.046733622 	-0.039258337 	0.89734794
0.0019899497 	-0.046733622 	-0.039258337 	0.89734794
0.0020100503 	-0.045498819 	-0.055698743 	0.89129806
0.0020301508 	-0.045498819 	-0.055698743 	0.89129806
0.0020502513 	-0.043806572 	-0.066916028 	0.88820438
0.0020703518 	-0.043806572 	-0.066916028 	0.88820438
0.0020904523 	-0.041614748 	-0.072178591 	0.88791291
0.0021105528 	-0.041614748 	-0.072178591 	0.88791291
0.0021306533 	-0.041614748 	-0.072178591 	0.88791291
0.0021507538 	-0.038793468 	-0.072446927 	0.88950801
0.0021708543 	-0.038793468 	-0.072446927 	0.88950801
0.0021909548 	-0.035327084 	-0.069388702 	0.89187774
0.0022110553 	-0.035327084 	-0.069388702 	0.89187774
0.0022311558 	-0.03143722 	-0.064691736 	0.89399326
0.0022512563 	-0.03143722 	-0.064691736 	0.89399326
0.0022713568 	-0.027518991 	-0.059798249 	0.89498091
0.0022914573 	-0.027518991 	-0.059798249 	0.89498091
0.0023115578 	-0.027518991 	-0.059798249 	0.89498091
0.0023316583 	-0.023958218 	-0.055817353 	0.89421687
0.0023517588 	-0.023958218 	-0.055817353 	0.89421687
0.0023718593 	-0.020978139 	-0.05339851 	0.89147258
0.0023919598 	-0.020978139 	-0.05339851 	0.89147258
0.0024120603 	-0.018612118 	-0.052568865 	0.88701941
0.0024321608 	-0.018612118 	-0.052568865 	0.88701941
0.0024522613 	-0.016789837 	-0.052700008 	0.88169446
0.0024723618 	-0.016789837 	-0.052700008 	0.88169446
0.0024924623 	-0.015400957 	-0.052742163 	0.87676227
0.0025125628 	-0.015400957 	-0.052742163 	0.87676227
0.0025326633 	-0.01430957 	-0.05167703 	0.87332126
0.0025527638 	-0.01430957 	-0.05167703 	0.87332126
0.0025728643 	-0.013356304 	-0.048935611 	0.87136413
0.0025929648 	-0.013356304 	-0.048935611 	0.87136413
0.0026130653 	-0.012397305 	-0.044631051 	0.86931873
0.0026331658 	-0.012397305 	-0.044631051 	0.86931873
0.0026532663 	-0.011356298 	-0.039531607 	0.86473912
0.0026733668 	-0.011356298 	-0.039531607 	0.86473912
0.0026934673 	-0.010211268 	-0.034773447 	0.85572618
0.0027135678 	-0.010211268 	-0.034773447 	0.85572618
0.0027336683 	-0.0089543364 	-0.031429025 	0.8419198
0.0027537688 	-0.0089543364 	-0.031429025 	0.8419198
0.0027738693 	-0.0075830098 	-0.030045321 	0.82440745
0.0027939698 	-0.0075830098 	-0.030045321 	0.82440745
0.0028140704 	-0.0061505783 	-0.030288764 	0.8049994
0.0028341709 	-0.0061505783 	-0.030288764 	0.8049994
0.0028542714 	-0.0048330224 	-0.030945591 	0.78564378
0.0028743719 	-0.0039434705 	-0.030383756 	0.7681689
0.0028944724 	-0.0039434705 	-0.030383756 	0.7681689
0.0029145729 	-0.0038570438 	-0.02724568 	0.75415499
0.0029346734 	-0.0038570438 	-0.02724568 	0.75415499
0.0029547739 	-0.0049342008 	-0.021005675 	0.74479557
0.0029748744 	-0.0049342008 	-0.021005675 	0.74479557
0.0029949749 	-0.0074714089 	-0.012109135 	0.74074657
0.0030150754 	-0.011608429 	-0.0016992757 	0.74171184
0.0030351759 	-0.011608429 	-0.0016992757 	0.74171184
0.0030552764 	-0.017468304 	0.0090638114 	0.74639009
0.0030753769 	-0.017468304 	0.0090638114 	0.74639009
0.0030954774 	-0.024807193 	0.019729104 	0.75267013
0.0031155779 	-0.032834926 	0.03068211 	0.75795953
0.0031356784 	-0.032834926 	0.03068211 	0.75795953
0.0031557789 	-0.040736935 	0.042387224 	0.75920637
0.0031758794 	-0.040736935 	0.042387224 	0.75920637
0.0031959799 	-0.048068873 	0.054560617 	0.75315457
0.0032160804 	-0.055021861 	0.066141042 	0.73740608
0.0032361809 	-0.055021861 	0.066141042 	0.73740608
0.0032562814 	-0.062211841 	0.075824298 	0.71158689
0.0032763819 	-0.070088934 	0.08254948 	0.67763397
0.0032964824 	-0.070088934 	0.08254948 	0.67763397
0.0033165829 	-0.078422486 	0.085887872 	0.6390523
0.0033366834 	-0.086274043 	0.086165974 	0.59958948
0.0033567839 	-0.086274043 	0.086165974 	0.59958948
0.0033768844 	-0.092453922 	0.083928737 	0.56202919
0.0033969849 	-0.096070017 	0.079341971 	0.52800399
0.0034170854 	-0.096070017 	0.079341971 	0.52800399
0.0034371859 	-0.096867945 	0.072395364 	0.49847434
0.0034572864 	-0.095219394 	0.063445103 	0.47371526
0.0034773869 	-0.091847144 	0.05334083 	0.45304428
0.0034974874 	-0.091847144 	0.05334083 	0.45304428
0.0035175879 	-0.087473095 	0.043155947 	0.43510436
0.0035376884 	-0.082611511 	0.033844439 	0.41846947
0.0035577889 	-0.077506347 	0.026056037 	0.40205585
0.0035778894 	-0.077506347 	0.026056037 	0.40205585
0.0035979899 	-0.072410063 	0.020038752 	0.38546204
0.0036180905 	-0.067492156 	0.015862858 	0.36858956
0.003638191 	-0.062661174 	0.013477165 	0.35143655
0.0036582915 	-0.062661174 	0.013477165 	0.35143655
0.003678392 	-0.057836832 	0.012730043 	0.33403255
0.0036984925 	-0.05294787 	0.013396512 	0.31638661
0.003718593 	-0.04794563 	0.015185784 	0.29847258
0.0037386935 	-0.042816237 	0.017744038 	0.28020715
0.003758794 	-0.037582403 	0.020670213 	0.26142838
0.0037788945 	-0.037582403 	0.020670213 	0.26142838
0.003798995 	-0.032295665 	0.023549493 	0.24190924
0.0038190955 	-0.027031307 	0.025994045 	0.22141097
0.003839196 	-0.021886426 	0.027678011 	0.19975405
0.0038592965 	-0.016976257 	0.02835848 	0.17686221
0.003879397 	-0.012427354 	0.027880344 	0.15275249
0.0038994975 	-0.0084014883 	0.026169451 	0.12748015
0.003919598 	-0.0050504291 	0.023196089 	0.10107627
0.0039396985 	-0.0024808505 	0.018902437 	0.073536964
0.003959799 	-0.0007800457 	0.013112712 	0.044869666
0.0039798995 	-3.0231577e-05 	0.0053572147 	0.015205799
0.004 	-3.0231577e-05 	0.0053572147 	0.015205799
