0 	0.0071856707 	0.022388235 	1.0140523
5.5555625e-05 	-0.01282667 	0.025538791 	1.000111
0.00011111111 	-0.025818068 	0.022065876 	0.98483754
0.00016666667 	-0.036694848 	0.015550407 	0.96961895
0.00022222222 	-0.046305281 	0.0073453791 	0.95587484
0.00027777778 	-0.055000634 	-0.0009959499 	0.94459094
0.00033333333 	-0.062985609 	-0.0082419581 	0.93603051
0.00038888889 	-0.070353779 	-0.013776992 	0.92983826
0.00044444444 	-0.077140128 	-0.017557046 	0.92537342
0.0005 	-0.083338123 	-0.019889948 	0.92199469
0.00055555556 	-0.088906735 	-0.021219431 	0.91920504
0.00061111111 	-0.093759002 	-0.021935996 	0.91668676
0.00066666667 	-0.097746971 	-0.022330861 	0.91430268
0.00072222222 	-0.10070167 	-0.022622245 	0.91206854
0.00077777778 	-0.10245771 	-0.022978376 	0.91011998
0.00083333333 	-0.1028979 	-0.023546867 	0.90864157
0.00088888889 	-0.1020325 	-0.024417364 	0.90780751
0.00094444444 	-0.099954357 	-0.025632811 	0.90765078
0.001 	-0.096745276 	-0.027157057 	0.90806528
0.0010617451 	-0.092564448 	-0.028721101 	0.90898018
0.0011226367 	-0.088178728 	-0.029705339 	0.90987855
0.0011826866 	-0.083756734 	-0.029583122 	0.91090282
0.0012419064 	-0.079326633 	-0.028206915 	0.91216741
0.0013003077 	-0.074779926 	-0.025893239 	0.91359654
0.0013579017 	-0.070097905 	-0.023249304 	0.9149202
0.0014146996 	-0.065210301 	-0.020795362 	0.91618399
0.0014707124 	-0.060012049 	-0.018846213 	0.91779765
0.0015259509 	-0.054432411 	-0.017435136 	0.92014514
0.001580426 	-0.048545104 	-0.016379638 	0.9233131
0.001634148 	-0.042534129 	-0.01542158 	0.92715384
0.0016871274 	-0.036612566 	-0.014389536 	0.93145805
0.0017393745 	-0.030960797 	-0.013251334 	0.9360703
0.0017908994 	-0.025709408 	-0.012099008 	0.94093154
0.0018417121 	-0.020932412 	-0.011077608 	0.94605343
0.0018918224 	-0.016671206 	-0.010295124 	0.95140486
0.0019412401 	-0.012973265 	-0.0097604056 	0.95677642
0.0019899746 	-0.0099077527 	-0.0094015977 	0.96173304
0.0020380356 	-0.0075571401 	-0.0091586351 	0.96569026
0.0020854322 	-0.0059827909 	-0.0090789918 	0.96805345
0.0021321736 	-0.0051824401 	-0.00933964 	0.96835353
0.002178269 	-0.0050638448 	-0.010202432 	0.9663641
0.0022237272 	-0.0054595539 	-0.011878017 	0.96220619
0.002268557 	-0.0061671213 	-0.014332253 	0.95641335
0.0023127672 	-0.00701253 	-0.017154499 	0.94995003
0.0023563662 	-0.0078833574 	-0.019577424 	0.94404423
0.0023993626 	-0.0087299686 	-0.020742824 	0.93981585
0.0024417647 	-0.0095770254 	-0.020003099 	0.93784729
0.0024835806 	-0.010506929 	-0.017109787 	0.93801318
0.0025248186 	-0.01160118 	-0.012191627 	0.93964366
0.0025654865 	-0.012912358 	-0.0055983546 	0.9418436
0.0026055923 	-0.01440542 	0.0023049623 	0.94376168
0.0026451437 	-0.016021342 	0.011191973 	0.94476244
0.0026841484 	-0.017733726 	0.020815562 	0.94448401
0.002722614 	-0.019458472 	0.030942373 	0.94285695
0.0027605478 	-0.021123681 	0.041344776 	0.94004126
0.0027979573 	-0.022689229 	0.051803068 	0.93633748
0.0028348498 	-0.024123987 	0.062120985 	0.93209168
0.0028712322 	-0.025402431 	0.072107247 	0.92760713
0.0029071118 	-0.026499255 	0.081520885 	0.92306245
0.0029424953 	-0.027377261 	0.090014756 	0.91842347
0.0029773898 	-0.027975966 	0.097140627 	0.91335477
0.003011802 	-0.028207471 	0.10243499 	0.90719164
0.0030457385 	-0.027977089 	0.10554244 	0.89909093
0.0030792059 	-0.02724374 	0.10630117 	0.88840874
0.0031122107 	-0.02609019 	0.1047439 	0.87515214
0.0031447592 	-0.024753685 	0.10103021 	0.86022619
0.0031768579 	-0.023582249 	0.095372054 	0.84528932
0.0032085129 	-0.02292782 	0.088009108 	0.83224259
0.0032397303 	-0.02301884 	0.079242845 	0.82253884
0.0032705162 	-0.023861059 	0.069485402 	0.81655814
0.0033008765 	-0.025203003 	0.059264996 	0.81328566
0.0033308172 	-0.026584433 	0.049162278 	0.81045787
0.0033603441 	-0.027465473 	0.039705667 	0.80519698
0.0033894627 	-0.027400642 	0.03128635 	0.79494393
0.0034181789 	-0.026193223 	0.024144204 	0.77831906
0.0034464982 	-0.023959166 	0.018425865 	0.75551113
0.003474426 	-0.021070897 	0.014261208 	0.72799492
0.0035019678 	-0.018005979 	0.011788396 	0.69772842
0.0035291288 	-0.015172181 	0.011101314 	0.66624959
0.0035559144 	-0.012789613 	0.012149251 	0.63409368
0.0035823298 	-0.010867834 	0.014656423 	0.60077574
0.0036083801 	-0.0092738536 	0.018122718 	0.56532207
0.0036340702 	-0.0078484085 	0.021923931 	0.52705614
0.0036594053 	-0.0065016723 	0.025467002 	0.48617905
0.0036843901 	-0.0052372165 	0.028322545 	0.44380857
0.0037090296 	-0.0041103051 	0.030271523 	0.40152103
0.0037333285 	-0.0031695058 	0.031268694 	0.36075733
0.0037572915 	-0.0024244373 	0.03137436 	0.32243621
0.0037809233 	-0.0018478753 	0.030700098 	0.28687051
0.0038042285 	-0.0013946684 	0.029378021 	0.25388257
0.0038272115 	-0.001021695 	0.027540898 	0.22298207
0.0038498768 	-0.00069932489 	0.025301972 	0.19353242
0.0038722288 	-0.00041601501 	0.022733202 	0.16487038
0.0038942718 	-0.00017695485 	0.019846297 	0.13639206
0.0039160102 	4.0065326e-06 	0.016581503 	0.10760266
0.003937448 	9.8908354e-05 	0.012810414 	0.078139791
0.0039585896 	9.7350915e-05 	0.0083621169 	0.047771412
0.0039794389 	2.879617e-05 	0.0030842837 	0.016366252
0.004 	2.6078586e-06 	0.0024957718 	0.017045189
