0 	0.0036952295 	0.014418791 	1.0405366
2.0100503e-05 	0.010469363 	0.00010205948 	1.0431408
4.0201005e-05 	0.010469363 	0.00010205948 	1.0431408
6.0301508e-05 	0.006843431 	-0.00013526905 	1.0451739
8.040201e-05 	0.006843431 	-0.00013526905 	1.0451739
0.00010050251 	0.006843431 	-0.00013526905 	1.0451739
0.00012060302 	0.0041792937 	0.0018777255 	1.0451006
0.00014070352 	0.0041792937 	0.0018777255 	1.0451006
0.00016080402 	0.0041792937 	0.0018777255 	1.0451006
0.00018090452 	0.0013953421 	0.0019413097 	1.0419584
0.00020100503 	0.0013953421 	0.0019413097 	1.0419584
0.00022110553 	0.0013953421 	0.0019413097 	1.0419584
0.00024120603 	-0.0017048017 	-0.00010165012 	1.0359193
0.00026130653 	-0.0017048017 	-0.00010165012 	1.0359193
0.00028140704 	-0.0049594331 	-0.0028506079 	1.028132
0.00030150754 	-0.0049594331 	-0.0028506079 	1.028132
0.00032160804 	-0.0049594331 	-0.0028506079 	1.028132
0.00034170854 	-0.007993775 	-0.0044315898 	1.0199757
0.00036180905 	-0.007993775 	-0.0044315898 	1.0199757
0.00038190955 	-0.007993775 	-0.0044315898 	1.0199757
0.00040201005 	-0.010380625 	-0.003502396 	1.0124511
0.00042211055 	-0.010380625 	-0.003502396 	1.0124511
0.00044221106 	-0.010380625 	-0.003502396 	1.0124511
0.00046231156 	-0.011874875 	0.00014880344 	1.0060208
0.00048241206 	-0.011874875 	0.00014880344 	1.0060208
0.00050251256 	-0.012531288 	0.0056196088 	1.000649
0.00052261307 	-0.012531288 	0.0056196088 	1.000649
0.00054271357 	-0.012531288 	0.0056196088 	1.000649
0.00056281407 	-0.01259658 	0.011305131 	0.99588502
0.00058291457 	-0.01259658 	0.011305131 	0.99588502
0.00060301508 	-0.01259658 	0.011305131 	0.99588502
0.00062311558 	-0.012349826 	0.015550937 	0.99125981
0.00064321608 	-0.012349826 	0.015550937 	0.99125981
0.00066331658 	-0.012349826 	0.015550937 	0.99125981
0.00068341709 	-0.012053799 	0.017153542 	0.98687872
0.00070351759 	-0.012053799 	0.017153542 	0.98687872
0.00072361809 	-0.011977367 	0.015601169 	0.98356994
0.00074371859 	-0.011977367 	0.015601169 	0.98356994
0.0007638191 	-0.011977367 	0.015601169 	0.98356994
0.0007839196 	-0.0123661 	0.011127184 	0.98232304
0.0008040201 	-0.0123661 	0.011127184 	0.98232304
0.0008241206 	-0.0123661 	0.011127184 	0.98232304
0.00084422111 	-0.013379445 	0.0045585812 	0.98364296
0.00086432161 	-0.013379445 	0.0045585812 	0.98364296
0.00088442211 	-0.013379445 	0.0045585812 	0.98364296
0.00090452261 	-0.014994019 	-0.0029961492 	0.98739471
0.00092462312 	-0.014994019 	-0.0029961492 	0.98739471
0.00094472362 	-0.01694277 	-0.010522496 	0.99287031
0.00096482412 	-0.01694277 	-0.010522496 	0.99287031
0.00098492462 	-0.01694277 	-0.010522496 	0.99287031
0.0010050251 	-0.018171121 	-0.015824479 	1.0034031
0.0010251256 	-0.018171121 	-0.015824479 	1.0034031
0.0010452261 	-0.018171121 	-0.015824479 	1.0034031
0.0010653266 	-0.019362047 	-0.022230685 	1.0091536
0.0010854271 	-0.019362047 	-0.022230685 	1.0091536
0.0011055276 	-0.019362047 	-0.022230685 	1.0091536
0.0011256281 	-0.02021796 	-0.027778894 	1.0033209
0.0011457286 	-0.02021796 	-0.027778894 	1.0033209
0.0011658291 	-0.019152062 	-0.026351062 	1.0098048
0.0011859296 	-0.017952393 	-0.027046096 	1.0044156
0.0012060302 	-0.017952393 	-0.027046096 	1.0044156
0.0012261307 	-0.017952393 	-0.027046096 	1.0044156
0.0012462312 	-0.016638632 	-0.023521175 	0.99431214
0.0012663317 	-0.018330238 	-0.025199599 	0.98944836
0.0012864322 	-0.018330238 	-0.025199599 	0.98944836
0.0013065327 	-0.0179295 	-0.017760127 	0.97931163
0.0013266332 	-0.0179295 	-0.017760127 	0.97931163
0.0013467337 	-0.0179295 	-0.017760127 	0.97931163
0.0013668342 	-0.018407166 	-0.0069010607 	0.96944235
0.0013869347 	-0.018407166 	-0.0069010607 	0.96944235
0.0014070352 	-0.018407166 	-0.0069010607 	0.96944235
0.0014271357 	-0.019580808 	0.005605549 	0.95928479
0.0014472362 	-0.017959635 	0.0078298802 	0.95759189
0.0014673367 	-0.017959635 	0.0078298802 	0.95759189
0.0014874372 	-0.019721113 	0.019901261 	0.94363838
0.0015075377 	-0.021033741 	0.01700516 	0.94615806
0.0015276382 	-0.022420456 	0.024427708 	0.92723425
0.0015477387 	-0.022420456 	0.024427708 	0.92723425
0.0015678392 	-0.022420456 	0.024427708 	0.92723425
0.0015879397 	-0.023722493 	0.026593055 	0.90246086
0.0016080402 	-0.023722493 	0.026593055 	0.90246086
0.0016281407 	-0.023722493 	0.026593055 	0.90246086
0.0016482412 	-0.025121848 	0.024810767 	0.87591316
0.0016683417 	-0.025121848 	0.024810767 	0.87591316
0.0016884422 	-0.02670035 	0.022027591 	0.85388903
0.0017085427 	-0.02670035 	0.022027591 	0.85388903
0.0017286432 	-0.02670035 	0.022027591 	0.85388903
0.0017487437 	-0.028329753 	0.020816918 	0.84135608
0.0017688442 	-0.028329753 	0.020816918 	0.84135608
0.0017889447 	-0.028329753 	0.020816918 	0.84135608
0.0018090452 	-0.029910436 	0.02208883 	0.83951054
0.0018291457 	-0.029910436 	0.02208883 	0.83951054
0.0018492462 	-0.031550757 	0.025287695 	0.8456113
0.0018693467 	-0.031550757 	0.025287695 	0.8456113
0.0018894472 	-0.031550757 	0.025287695 	0.8456113
0.0019095477 	-0.033387141 	0.02950083 	0.85486119
0.0019296482 	-0.033387141 	0.02950083 	0.85486119
0.0019497487 	-0.035302863 	0.034295401 	0.86294428
0.0019698492 	-0.035302863 	0.034295401 	0.86294428
0.0019899497 	-0.036919747 	0.039668069 	0.86755417
0.0020100503 	-0.036919747 	0.039668069 	0.86755417
0.0020301508 	-0.036919747 	0.039668069 	0.86755417
0.0020502513 	-0.037863834 	0.045531573 	0.86840552
0.0020703518 	-0.037863834 	0.045531573 	0.86840552
0.0020904523 	-0.038023748 	0.051422972 	0.86636472
0.0021105528 	-0.038023748 	0.051422972 	0.86636472
0.0021306533 	-0.038023748 	0.051422972 	0.86636472
0.0021507538 	-0.037578892 	0.056655974 	0.86254024
0.0021708543 	-0.037578892 	0.056655974 	0.86254024
0.0021909548 	-0.036845434 	0.060622746 	0.85778239
0.0022110553 	-0.036845434 	0.060622746 	0.85778239
0.0022311558 	-0.036118002 	0.062981927 	0.85257821
0.0022512563 	-0.036118002 	0.062981927 	0.85257821
0.0022713568 	-0.035569322 	0.063645609 	0.84714676
0.0022914573 	-0.035569322 	0.063645609 	0.84714676
0.0023115578 	-0.035569322 	0.063645609 	0.84714676
0.0023316583 	-0.0351988 	0.062675332 	0.84160277
0.0023517588 	-0.0351988 	0.062675332 	0.84160277
0.0023718593 	-0.034858442 	0.060177545 	0.83608906
0.0023919598 	-0.034858442 	0.060177545 	0.83608906
0.0024120603 	-0.03434524 	0.056260351 	0.83081286
0.0024321608 	-0.03434524 	0.056260351 	0.83081286
0.0024522613 	-0.033518121 	0.051060272 	0.82599882
0.0024723618 	-0.033518121 	0.051060272 	0.82599882
0.0024924623 	-0.032384002 	0.044779323 	0.82183797
0.0025125628 	-0.032384002 	0.044779323 	0.82183797
0.0025326633 	-0.031114072 	0.037710279 	0.81846861
0.0025527638 	-0.031114072 	0.037710279 	0.81846861
0.0025728643 	-0.029991849 	0.030268956 	0.81595048
0.0025929648 	-0.029991849 	0.030268956 	0.81595048
0.0026130653 	-0.029318939 	0.023032766 	0.81421294
0.0026331658 	-0.029318939 	0.023032766 	0.81421294
0.0026532663 	-0.029329548 	0.016685048 	0.81309867
0.0026733668 	-0.029329548 	0.016685048 	0.81309867
0.0026934673 	-0.030157929 	0.011764017 	0.8126995
0.0027135678 	-0.030157929 	0.011764017 	0.8126995
0.0027336683 	-0.031897267 	0.0083097118 	0.81394542
0.0027537688 	-0.031897267 	0.0083097118 	0.81394542
0.0027738693 	-0.034672731 	0.0057440712 	0.81877355
0.0027939698 	-0.034672731 	0.0057440712 	0.81877355
0.0028140704 	-0.038656628 	0.0032059939 	0.82909624
0.0028341709 	-0.038656628 	0.0032059939 	0.82909624
0.0028542714 	-0.043750202 	2.8414741e-05 	0.84493744
0.0028743719 	-0.049202825 	-0.0040155846 	0.86340645
0.0028944724 	-0.049202825 	-0.0040155846 	0.86340645
0.0029145729 	-0.053695653 	-0.0086759488 	0.87959086
0.0029346734 	-0.053695653 	-0.0086759488 	0.87959086
0.0029547739 	-0.055836493 	-0.013248819 	0.8883543
0.0029748744 	-0.055836493 	-0.013248819 	0.8883543
0.0029949749 	-0.054543741 	-0.016754258 	0.88606238
0.0030150754 	-0.049348032 	-0.018397892 	0.87168482
0.0030351759 	-0.049348032 	-0.018397892 	0.87168482
0.0030552764 	-0.040674766 	-0.018005094 	0.84698381
0.0030753769 	-0.040674766 	-0.018005094 	0.84698381
0.0030954774 	-0.029723496 	-0.016115975 	0.81566226
0.0031155779 	-0.018093594 	-0.013724841 	0.78178557
0.0031356784 	-0.018093594 	-0.013724841 	0.78178557
0.0031557789 	-0.0071632086 	-0.011872737 	0.74837276
0.0031758794 	-0.0071632086 	-0.011872737 	0.74837276
0.0031959799 	0.0021722317 	-0.011339009 	0.71691462
0.0032160804 	0.0094608105 	-0.012456196 	0.68782858
0.0032361809 	0.0094608105 	-0.012456196 	0.68782858
0.0032562814 	0.014618817 	-0.015087371 	0.66119645
0.0032763819 	0.017741077 	-0.018769987 	0.63726199
0.0032964824 	0.017741077 	-0.018769987 	0.63726199
0.0033165829 	0.019040003 	-0.022891415 	0.61649172
0.0033366834 	0.018775289 	-0.026852988 	0.59937641
0.0033567839 	0.018775289 	-0.026852988 	0.59937641
0.0033768844 	0.01719094 	-0.030160806 	0.58625305
0.0033969849 	0.014579422 	-0.032499681 	0.57716569
0.0034170854 	0.014579422 	-0.032499681 	0.57716569
0.0034371859 	0.011238659 	-0.033716955 	0.57186471
0.0034572864 	0.0074112129 	-0.033770138 	0.56984226
0.0034773869 	0.0033339724 	-0.032674138 	0.57038806
0.0034974874 	0.0033339724 	-0.032674138 	0.57038806
0.0035175879 	-0.00076061642 	-0.030466593 	0.57263749
0.0035376884 	-0.0046410798 	-0.027204585 	0.57561638
0.0035577889 	-0.0080873346 	-0.022986834 	0.57828528
0.0035778894 	-0.0080873346 	-0.022986834 	0.57828528
0.0035979899 	-0.010916382 	-0.017979598 	0.57959203
0.0036180905 	-0.012992069 	-0.012430604 	0.57853627
0.003638191 	-0.014235735 	-0.0066554496 	0.57424205
0.0036582915 	-0.014235735 	-0.0066554496 	0.57424205
0.003678392 	-0.014715322 	-0.00099726582 	0.56600258
0.0036984925 	-0.014569038 	0.0042288585 	0.55339916
0.003718593 	-0.013902478 	0.0087626469 	0.53618687
0.0037386935 	-0.01282001 	0.012410293 	0.51429059
0.003758794 	-0.01143173 	0.015047319 	0.48777367
0.0037788945 	-0.01143173 	0.015047319 	0.48777367
0.003798995 	-0.0098496782 	0.016625048 	0.45681253
0.0038190955 	-0.008185378 	0.017176477 	0.42167373
0.003839196 	-0.0065398705 	0.016808442 	0.38268497
0.0038592965 	-0.0049923988 	0.01567699 	0.34020468
0.003879397 	-0.0035973917 	0.013957847 	0.29459732
0.0038994975 	-0.0023900523 	0.011824669 	0.24621243
0.003919598 	-0.0013976136 	0.0094357588 	0.19535896
0.0039396985 	-0.00064781798 	0.006917191 	0.14226996
0.003959799 	-0.00016780992 	0.0043251962 	0.087068297
0.0039798995 	1.0789073e-05 	0.0015824612 	0.029783187
0.004 	1.0789073e-05 	0.0015824612 	0.029783187
