0 	0.0017511125 	-0.033661184 	1.0470653
2.0100503e-05 	0.0017511125 	-0.033661184 	1.0470653
4.0201005e-05 	0.0017511125 	-0.033661184 	1.0470653
6.0301508e-05 	0.014213819 	-0.034967686 	1.0375762
8.040201e-05 	0.014213819 	-0.034967686 	1.0375762
0.00010050251 	0.014213819 	-0.034967686 	1.0375762
0.00012060302 	0.016901232 	-0.040785933 	1.0263819
0.00014070352 	0.016901232 	-0.040785933 	1.0263819
0.00016080402 	0.016901232 	-0.040785933 	1.0263819
0.00018090452 	0.031553398 	-0.041148553 	1.017884
0.00020100503 	0.031553398 	-0.041148553 	1.017884
0.00022110553 	0.031553398 	-0.041148553 	1.017884
0.00024120603 	0.031564753 	-0.046937562 	1.0106324
0.00026130653 	0.019813566 	-0.053592805 	1.0089095
0.00028140704 	0.021071833 	-0.05542967 	1.0050643
0.00030150754 	0.021071833 	-0.05542967 	1.0050643
0.00032160804 	0.021071833 	-0.05542967 	1.0050643
0.00034170854 	0.021890835 	-0.0533916 	1.0034187
0.00036180905 	0.021890835 	-0.0533916 	1.0034187
0.00038190955 	0.021890835 	-0.0533916 	1.0034187
0.00040201005 	0.021969906 	-0.049220063 	1.0030128
0.00042211055 	0.021969906 	-0.049220063 	1.0030128
0.00044221106 	0.021969906 	-0.049220063 	1.0030128
0.00046231156 	0.021263872 	-0.045110548 	1.0038404
0.00048241206 	0.021263872 	-0.045110548 	1.0038404
0.00050251256 	0.020025154 	-0.042373251 	1.0063748
0.00052261307 	0.020025154 	-0.042373251 	1.0063748
0.00054271357 	0.020025154 	-0.042373251 	1.0063748
0.00056281407 	0.018623765 	-0.041227805 	1.0109159
0.00058291457 	0.018623765 	-0.041227805 	1.0109159
0.00060301508 	0.022371376 	-0.037744174 	1.0087079
0.00062311558 	0.020451387 	-0.037843353 	1.0148493
0.00064321608 	0.020451387 	-0.037843353 	1.0148493
0.00066331658 	0.020451387 	-0.037843353 	1.0148493
0.00068341709 	0.019272122 	-0.038532935 	1.0220088
0.00070351759 	0.019272122 	-0.038532935 	1.0220088
0.00072361809 	0.019012037 	-0.039468355 	1.0296262
0.00074371859 	0.019012037 	-0.039468355 	1.0296262
0.0007638191 	0.019012037 	-0.039468355 	1.0296262
0.0007839196 	0.019768756 	-0.040424915 	1.0371453
0.0008040201 	0.019768756 	-0.040424915 	1.0371453
0.0008241206 	0.016970398 	-0.04343001 	1.0420325
0.00084422111 	0.018436657 	-0.044007668 	1.0495741
0.00086432161 	0.018436657 	-0.044007668 	1.0495741
0.00088442211 	0.018436657 	-0.044007668 	1.0495741
0.00090452261 	0.024506621 	-0.042018373 	1.0493256
0.00092462312 	0.020831892 	-0.044405245 	1.0555138
0.00094472362 	0.024381394 	-0.044852003 	1.0592106
0.00096482412 	0.024381394 	-0.044852003 	1.0592106
0.00098492462 	0.024381394 	-0.044852003 	1.0592106
0.0010050251 	0.033808452 	-0.043555458 	1.0538668
0.0010251256 	0.033808452 	-0.043555458 	1.0538668
0.0010452261 	0.033808452 	-0.043555458 	1.0538668
0.0010653266 	0.040143762 	-0.044546246 	1.0528372
0.0010854271 	0.040143762 	-0.044546246 	1.0528372
0.0011055276 	0.040143762 	-0.044546246 	1.0528372
0.0011256281 	0.046324452 	-0.045380806 	1.0513439
0.0011457286 	0.046324452 	-0.045380806 	1.0513439
0.0011658291 	0.040827333 	-0.046844288 	1.0570719
0.0011859296 	0.046084821 	-0.047040974 	1.0558542
0.0012060302 	0.046084821 	-0.047040974 	1.0558542
0.0012261307 	0.051464555 	-0.045925759 	1.0511148
0.0012462312 	0.055283383 	-0.046377744 	1.0521935
0.0012663317 	0.055283383 	-0.046377744 	1.0521935
0.0012864322 	0.055283383 	-0.046377744 	1.0521935
0.0013065327 	0.058092494 	-0.047164094 	1.0531178
0.0013266332 	0.058092494 	-0.047164094 	1.0531178
0.0013467337 	0.058092494 	-0.047164094 	1.0531178
0.0013668342 	0.060127299 	-0.048389592 	1.053186
0.0013869347 	0.060127299 	-0.048389592 	1.053186
0.0014070352 	0.060127299 	-0.048389592 	1.053186
0.0014271357 	0.061064018 	-0.04965209 	1.0533332
0.0014472362 	0.061064018 	-0.04965209 	1.0533332
0.0014673367 	0.061064018 	-0.04965209 	1.0533332
0.0014874372 	0.060445941 	-0.050441315 	1.0544731
0.0015075377 	0.060445941 	-0.050441315 	1.0544731
0.0015276382 	0.058142857 	-0.050275098 	1.0563555
0.0015477387 	0.058142857 	-0.050275098 	1.0563555
0.0015678392 	0.058142857 	-0.050275098 	1.0563555
0.0015879397 	0.054229973 	-0.048766375 	1.0581598
0.0016080402 	0.054229973 	-0.048766375 	1.0581598
0.0016281407 	0.054229973 	-0.048766375 	1.0581598
0.0016482412 	0.048855512 	-0.0456349 	1.05931
0.0016683417 	0.048855512 	-0.0456349 	1.05931
0.0016884422 	0.042149102 	-0.040741711 	1.0595355
0.0017085427 	0.042149102 	-0.040741711 	1.0595355
0.0017286432 	0.042149102 	-0.040741711 	1.0595355
0.0017487437 	0.034359818 	-0.033795506 	1.0587033
0.0017688442 	0.034359818 	-0.033795506 	1.0587033
0.0017889447 	0.034359818 	-0.033795506 	1.0587033
0.0018090452 	0.025994199 	-0.024570352 	1.0570307
0.0018291457 	0.025994199 	-0.024570352 	1.0570307
0.0018492462 	0.017887885 	-0.01323459 	1.0553149
0.0018693467 	0.017887885 	-0.01323459 	1.0553149
0.0018894472 	0.017887885 	-0.01323459 	1.0553149
0.0019095477 	0.010875038 	-0.00073780083 	1.0544731
0.0019296482 	0.010875038 	-0.00073780083 	1.0544731
0.0019497487 	0.0059626208 	0.011377671 	1.0542267
0.0019698492 	0.0059626208 	0.011377671 	1.0542267
0.0019899497 	0.0036968507 	0.021437213 	1.0524128
0.0020100503 	0.0036968507 	0.021437213 	1.0524128
0.0020301508 	0.0036968507 	0.021437213 	1.0524128
0.0020502513 	0.0036652673 	0.028581043 	1.0457498
0.0020703518 	0.0036652673 	0.028581043 	1.0457498
0.0020904523 	0.0057294134 	0.032868848 	1.0320939
0.0021105528 	0.0057294134 	0.032868848 	1.0320939
0.0021306533 	0.0057294134 	0.032868848 	1.0320939
0.0021507538 	0.0094506473 	0.035129049 	1.0120987
0.0021708543 	0.0094506473 	0.035129049 	1.0120987
0.0021909548 	0.01408698 	0.03657522 	0.98800529
0.0022110553 	0.01408698 	0.03657522 	0.98800529
0.0022311558 	0.019311666 	0.038406574 	0.96186914
0.0022512563 	0.019311666 	0.038406574 	0.96186914
0.0022713568 	0.025023599 	0.041524736 	0.93514569
0.0022914573 	0.025023599 	0.041524736 	0.93514569
0.0023115578 	0.025023599 	0.041524736 	0.93514569
0.0023316583 	0.031295682 	0.046249822 	0.90883206
0.0023517588 	0.031295682 	0.046249822 	0.90883206
0.0023718593 	0.038171217 	0.052067102 	0.88361919
0.0023919598 	0.038171217 	0.052067102 	0.88361919
0.0024120603 	0.04541127 	0.057642079 	0.86025762
0.0024321608 	0.04541127 	0.057642079 	0.86025762
0.0024522613 	0.052405793 	0.061287968 	0.83978341
0.0024723618 	0.052405793 	0.061287968 	0.83978341
0.0024924623 	0.058304373 	0.061675821 	0.82334585
0.0025125628 	0.058304373 	0.061675821 	0.82334585
0.0025326633 	0.062295168 	0.058282704 	0.81169574
0.0025527638 	0.062295168 	0.058282704 	0.81169574
0.0025728643 	0.063895643 	0.051590141 	0.80480152
0.0025929648 	0.063895643 	0.051590141 	0.80480152
0.0026130653 	0.063093732 	0.042792229 	0.80195037
0.0026331658 	0.063093732 	0.042792229 	0.80195037
0.0026532663 	0.060303426 	0.033242622 	0.80212554
0.0026733668 	0.060303426 	0.033242622 	0.80212554
0.0026934673 	0.056194944 	0.024048752 	0.80426037
0.0027135678 	0.056194944 	0.024048752 	0.80426037
0.0027336683 	0.051628074 	0.015936871 	0.80737334
0.0027537688 	0.051628074 	0.015936871 	0.80737334
0.0027738693 	0.047468631 	0.0093956052 	0.81054483
0.0027939698 	0.047468631 	0.0093956052 	0.81054483
0.0028140704 	0.04449378 	0.0048284045 	0.81305346
0.0028341709 	0.04449378 	0.0048284045 	0.81305346
0.0028542714 	0.043249929 	0.0025790701 	0.81451113
0.0028743719 	0.043908055 	0.0028422163 	0.81482905
0.0028944724 	0.043908055 	0.0028422163 	0.81482905
0.0029145729 	0.046319843 	0.005493762 	0.81418706
0.0029346734 	0.046319843 	0.005493762 	0.81418706
0.0029547739 	0.050116336 	0.010050937 	0.81287982
0.0029748744 	0.050116336 	0.010050937 	0.81287982
0.0029949749 	0.054839619 	0.015817787 	0.81115714
0.0030150754 	0.06010028 	0.022029798 	0.80920436
0.0030351759 	0.06010028 	0.022029798 	0.80920436
0.0030552764 	0.065576325 	0.02805113 	0.80706383
0.0030753769 	0.065576325 	0.02805113 	0.80706383
0.0030954774 	0.070996853 	0.033432842 	0.80469549
0.0031155779 	0.076156831 	0.037905595 	0.80209478
0.0031356784 	0.076156831 	0.037905595 	0.80209478
0.0031557789 	0.080898658 	0.041318974 	0.79932508
0.0031758794 	0.080898658 	0.041318974 	0.79932508
0.0031959799 	0.085079901 	0.043635822 	0.79665649
0.0032160804 	0.088633895 	0.044883834 	0.79433499
0.0032361809 	0.088633895 	0.044883834 	0.79433499
0.0032562814 	0.091557295 	0.045086703 	0.79265556
0.0032763819 	0.093857297 	0.044198755 	0.79174799
0.0032964824 	0.093857297 	0.044198755 	0.79174799
0.0033165829 	0.095440057 	0.042104953 	0.79138697
0.0033366834 	0.096028329 	0.038729198 	0.79086197
0.0033567839 	0.096028329 	0.038729198 	0.79086197
0.0033768844 	0.095182918 	0.034134148 	0.78910224
0.0033969849 	0.092442743 	0.028477379 	0.78505584
0.0034170854 	0.092442743 	0.028477379 	0.78505584
0.0034371859 	0.087526542 	0.021646838 	0.77808984
0.0034572864 	0.080521709 	0.012736471 	0.76821154
0.0034773869 	0.071745999 	-0.0004286231 	0.75612325
0.0034974874 	0.071745999 	-0.0004286231 	0.75612325
0.0035175879 	0.061565153 	-0.021002516 	0.74300445
0.0035376884 	0.050366083 	-0.0510507 	0.72973991
0.0035577889 	0.038367095 	-0.088669147 	0.71587057
0.0035778894 	0.038367095 	-0.088669147 	0.71587057
0.0035979899 	0.025708297 	-0.12713072 	0.69942715
0.0036180905 	0.012941126 	-0.15755933 	0.67823055
0.003638191 	0.0013696219 	-0.1729673 	0.65167098
0.0036582915 	0.0013696219 	-0.1729673 	0.65167098
0.003678392 	-0.0074757549 	-0.17068012 	0.62190914
0.0036984925 	-0.012709525 	-0.15247934 	0.59335332
0.003718593 	-0.014513343 	-0.12311131 	0.57010804
0.0037386935 	-0.013802896 	-0.088140807 	0.55340907
0.003758794 	-0.011674499 	-0.052463594 	0.54133617
0.0037788945 	-0.011674499 	-0.052463594 	0.54133617
0.003798995 	-0.0091038853 	-0.01994716 	0.53003567
0.0038190955 	-0.0067644891 	0.0064784834 	0.51475225
0.003839196 	-0.0050066241 	0.02488223 	0.49061666
0.0038592965 	-0.0039179563 	0.034594608 	0.45378044
0.003879397 	-0.0033891187 	0.036492469 	0.40256456
0.0038994975 	-0.003166354 	0.032852707 	0.33801904
0.003919598 	-0.0028981413 	0.026398219 	0.26370062
0.0039396985 	-0.0023175722 	0.019019715 	0.18481486
0.003959799 	-0.0013932842 	0.011307272 	0.10684059
0.0039798995 	-0.00029680076 	0.0033605247 	0.033904037
0.004 	-0.00029680076 	0.0033605247 	0.033904037
