0 	-0.0099831923 	-0.030118926 	1.0743004
2.0100503e-05 	-0.029931796 	0.011011945 	1.0789165
4.0201005e-05 	-0.029931796 	0.011011945 	1.0789165
6.0301508e-05 	-0.02184433 	0.024556366 	1.08321
8.040201e-05 	-0.02184433 	0.024556366 	1.08321
0.00010050251 	-0.02184433 	0.024556366 	1.08321
0.00012060302 	-0.018992233 	0.028406356 	1.0870152
0.00014070352 	-0.018992233 	0.028406356 	1.0870152
0.00016080402 	-0.018992233 	0.028406356 	1.0870152
0.00018090452 	-0.018194131 	0.030318827 	1.0900707
0.00020100503 	-0.018194131 	0.030318827 	1.0900707
0.00022110553 	-0.018194131 	0.030318827 	1.0900707
0.00024120603 	-0.018546657 	0.031035641 	1.0921147
0.00026130653 	-0.018546657 	0.031035641 	1.0921147
0.00028140704 	-0.019768464 	0.030734101 	1.093002
0.00030150754 	-0.019768464 	0.030734101 	1.093002
0.00032160804 	-0.019768464 	0.030734101 	1.093002
0.00034170854 	-0.021745605 	0.029677379 	1.0927566
0.00036180905 	-0.021745605 	0.029677379 	1.0927566
0.00038190955 	-0.021745605 	0.029677379 	1.0927566
0.00040201005 	-0.02441179 	0.028300232 	1.0914858
0.00042211055 	-0.02441179 	0.028300232 	1.0914858
0.00044221106 	-0.02441179 	0.028300232 	1.0914858
0.00046231156 	-0.027675349 	0.027134794 	1.089152
0.00048241206 	-0.027675349 	0.027134794 	1.089152
0.00050251256 	-0.025296942 	0.031135162 	1.0842426
0.00052261307 	-0.025296942 	0.031135162 	1.0842426
0.00054271357 	-0.025296942 	0.031135162 	1.0842426
0.00056281407 	-0.028996183 	0.032216986 	1.0788817
0.00058291457 	-0.028996183 	0.032216986 	1.0788817
0.00060301508 	-0.028996183 	0.032216986 	1.0788817
0.00062311558 	-0.032479509 	0.034222144 	1.0704059
0.00064321608 	-0.032479509 	0.034222144 	1.0704059
0.00066331658 	-0.032479509 	0.034222144 	1.0704059
0.00068341709 	-0.042320363 	0.031488118 	1.0577879
0.00070351759 	-0.042320363 	0.031488118 	1.0577879
0.00072361809 	-0.045486861 	0.033788871 	1.0433664
0.00074371859 	-0.045486861 	0.033788871 	1.0433664
0.0007638191 	-0.045486861 	0.033788871 	1.0433664
0.0007839196 	-0.048542247 	0.034387863 	1.0284239
0.0008040201 	-0.048542247 	0.034387863 	1.0284239
0.0008241206 	-0.048542247 	0.034387863 	1.0284239
0.00084422111 	-0.051539993 	0.03175524 	1.0139949
0.00086432161 	-0.051539993 	0.03175524 	1.0139949
0.00088442211 	-0.051539993 	0.03175524 	1.0139949
0.00090452261 	-0.05433379 	0.02502513 	0.99996717
0.00092462312 	-0.05433379 	0.02502513 	0.99996717
0.00094472362 	-0.056822504 	0.014434525 	0.9859139
0.00096482412 	-0.056822504 	0.014434525 	0.9859139
0.00098492462 	-0.056822504 	0.014434525 	0.9859139
0.0010050251 	-0.059284291 	0.0006328829 	0.97151275
0.0010251256 	-0.059284291 	0.0006328829 	0.97151275
0.0010452261 	-0.059284291 	0.0006328829 	0.97151275
0.0010653266 	-0.061925292 	-0.014235983 	0.95856505
0.0010854271 	-0.061925292 	-0.014235983 	0.95856505
0.0011055276 	-0.061925292 	-0.014235983 	0.95856505
0.0011256281 	-0.06412267 	-0.026921237 	0.94873452
0.0011457286 	-0.06412267 	-0.026921237 	0.94873452
0.0011658291 	-0.0622814 	-0.022006143 	0.94961047
0.0011859296 	-0.064309341 	-0.032214878 	0.94505555
0.0012060302 	-0.06519471 	-0.036337057 	0.94208605
0.0012261307 	-0.06519471 	-0.036337057 	0.94208605
0.0012462312 	-0.064718181 	-0.042866438 	0.93836882
0.0012663317 	-0.064718181 	-0.042866438 	0.93836882
0.0012864322 	-0.064718181 	-0.042866438 	0.93836882
0.0013065327 	-0.062752694 	-0.047250638 	0.93695571
0.0013266332 	-0.062752694 	-0.047250638 	0.93695571
0.0013467337 	-0.062752694 	-0.047250638 	0.93695571
0.0013668342 	-0.059664128 	-0.050031683 	0.93671959
0.0013869347 	-0.059664128 	-0.050031683 	0.93671959
0.0014070352 	-0.059664128 	-0.050031683 	0.93671959
0.0014271357 	-0.055903105 	-0.051483106 	0.9364294
0.0014472362 	-0.055903105 	-0.051483106 	0.9364294
0.0014673367 	-0.055903105 	-0.051483106 	0.9364294
0.0014874372 	-0.051820487 	-0.051729753 	0.93521614
0.0015075377 	-0.051820487 	-0.051729753 	0.93521614
0.0015276382 	-0.047582037 	-0.05081349 	0.93276365
0.0015477387 	-0.047582037 	-0.05081349 	0.93276365
0.0015678392 	-0.044518747 	-0.0537549 	0.93811384
0.0015879397 	-0.039655858 	-0.052261707 	0.93479505
0.0016080402 	-0.039655858 	-0.052261707 	0.93479505
0.0016281407 	-0.039655858 	-0.052261707 	0.93479505
0.0016482412 	-0.038869887 	-0.045577429 	0.92488295
0.0016683417 	-0.038869887 	-0.045577429 	0.92488295
0.0016884422 	-0.034540412 	-0.041439192 	0.92012743
0.0017085427 	-0.034540412 	-0.041439192 	0.92012743
0.0017286432 	-0.034540412 	-0.041439192 	0.92012743
0.0017487437 	-0.030382376 	-0.036537629 	0.91523775
0.0017688442 	-0.030382376 	-0.036537629 	0.91523775
0.0017889447 	-0.030382376 	-0.036537629 	0.91523775
0.0018090452 	-0.026519297 	-0.03115666 	0.91047831
0.0018291457 	-0.026519297 	-0.03115666 	0.91047831
0.0018492462 	-0.023042333 	-0.025626373 	0.90610466
0.0018693467 	-0.023042333 	-0.025626373 	0.90610466
0.0018894472 	-0.023042333 	-0.025626373 	0.90610466
0.0019095477 	-0.020011174 	-0.020299932 	0.90234436
0.0019296482 	-0.020011174 	-0.020299932 	0.90234436
0.0019497487 	-0.017452342 	-0.015523224 	0.89936509
0.0019698492 	-0.017452342 	-0.015523224 	0.89936509
0.0019899497 	-0.015329936 	-0.011586191 	0.89725579
0.0020100503 	-0.015329936 	-0.011586191 	0.89725579
0.0020301508 	-0.015329936 	-0.011586191 	0.89725579
0.0020502513 	-0.013564527 	-0.0086899949 	0.89602865
0.0020703518 	-0.013564527 	-0.0086899949 	0.89602865
0.0020904523 	-0.012067749 	-0.0069168951 	0.89563917
0.0021105528 	-0.012067749 	-0.0069168951 	0.89563917
0.0021306533 	-0.012067749 	-0.0069168951 	0.89563917
0.0021507538 	-0.010761185 	-0.0062302532 	0.89601005
0.0021708543 	-0.010761185 	-0.0062302532 	0.89601005
0.0021909548 	-0.0095871167 	-0.006501306 	0.89704271
0.0022110553 	-0.0095871167 	-0.006501306 	0.89704271
0.0022311558 	-0.008522716 	-0.007532328 	0.89861618
0.0022512563 	-0.008522716 	-0.007532328 	0.89861618
0.0022713568 	-0.0075580408 	-0.009076551 	0.90056978
0.0022914573 	-0.0075580408 	-0.009076551 	0.90056978
0.0023115578 	-0.0075580408 	-0.009076551 	0.90056978
0.0023316583 	-0.0066824318 	-0.010865049 	0.90269273
0.0023517588 	-0.0066824318 	-0.010865049 	0.90269273
0.0023718593 	-0.0058803945 	-0.012623812 	0.90471148
0.0023919598 	-0.0058803945 	-0.012623812 	0.90471148
0.0024120603 	-0.0051097955 	-0.014096137 	0.90629235
0.0024321608 	-0.0051097955 	-0.014096137 	0.90629235
0.0024522613 	-0.0042944846 	-0.015060945 	0.90709714
0.0024723618 	-0.0042944846 	-0.015060945 	0.90709714
0.0024924623 	-0.0033228184 	-0.015347563 	0.90685541
0.0025125628 	-0.0033228184 	-0.015347563 	0.90685541
0.0025326633 	-0.0020826247 	-0.014836311 	0.90548772
0.0025527638 	-0.0020826247 	-0.014836311 	0.90548772
0.0025728643 	-0.00048654926 	-0.013461697 	0.90319505
0.0025929648 	-0.00048654926 	-0.013461697 	0.90319505
0.0026130653 	0.0015092811 	-0.011221726 	0.90045855
0.0026331658 	0.0015092811 	-0.011221726 	0.90045855
0.0026532663 	0.0038627449 	-0.0082121634 	0.89791409
0.0026733668 	0.0038627449 	-0.0082121634 	0.89791409
0.0026934673 	0.0064529217 	-0.0046488636 	0.8961361
0.0027135678 	0.0064529217 	-0.0046488636 	0.8961361
0.0027336683 	0.009101988 	-0.00085088538 	0.89543624
0.0027537688 	0.009101988 	-0.00085088538 	0.89543624
0.0027738693 	0.011616091 	0.0028390496 	0.89578017
0.0027939698 	0.011616091 	0.0028390496 	0.89578017
0.0028140704 	0.013827689 	0.0061696927 	0.89686589
0.0028341709 	0.013827689 	0.0061696927 	0.89686589
0.0028542714 	0.015598043 	0.0090732531 	0.89827902
0.0028743719 	0.016836441 	0.011615933 	0.89965542
0.0028944724 	0.016836441 	0.011615933 	0.89965542
0.0029145729 	0.017504962 	0.013954934 	0.900794
0.0029346734 	0.017504962 	0.013954934 	0.900794
0.0029547739 	0.017591466 	0.016203637 	0.90168326
0.0029748744 	0.017591466 	0.016203637 	0.90168326
0.0029949749 	0.017094592 	0.018381061 	0.90245949
0.0030150754 	0.015997229 	0.020419226 	0.90332373
0.0030351759 	0.015997229 	0.020419226 	0.90332373
0.0030552764 	0.014267639 	0.022221046 	0.90445286
0.0030753769 	0.014267639 	0.022221046 	0.90445286
0.0030954774 	0.011893513 	0.023734085 	0.90591399
0.0031155779 	0.008900577 	0.025029117 	0.90760549
0.0031356784 	0.008900577 	0.025029117 	0.90760549
0.0031557789 	0.0053867325 	0.026324216 	0.90918205
0.0031758794 	0.0053867325 	0.026324216 	0.90918205
0.0031959799 	0.0015479112 	0.027965339 	0.90999923
0.0032160804 	-0.0023564126 	0.030374763 	0.90905841
0.0032361809 	-0.0023564126 	0.030374763 	0.90905841
0.0032562814 	-0.0060302971 	0.033945655 	0.90500987
0.0032763819 	-0.0091568319 	0.038903631 	0.89628411
0.0032964824 	-0.0091568319 	0.038903631 	0.89628411
0.0033165829 	-0.011452775 	0.045142002 	0.88140357
0.0033366834 	-0.012711449 	0.052076741 	0.85945617
0.0033567839 	-0.012711449 	0.052076741 	0.85945617
0.0033768844 	-0.012856269 	0.058585538 	0.83061139
0.0033969849 	-0.011987942 	0.063098754 	0.79647207
0.0034170854 	-0.011987942 	0.063098754 	0.79647207
0.0034371859 	-0.010419942 	0.063857638 	0.76009748
0.0034572864 	-0.0086914298 	0.059293994 	0.72561343
0.0034773869 	-0.0075199001 	0.048388291 	0.69735002
0.0034974874 	-0.0075199001 	0.048388291 	0.69735002
0.0035175879 	-0.0076462889 	0.030885867 	0.67839938
0.0035376884 	-0.0094922761 	0.0073771745 	0.66857523
0.0035577889 	-0.012713354 	-0.020490084 	0.66278306
0.0035778894 	-0.012713354 	-0.020490084 	0.66278306
0.0035979899 	-0.015995412 	-0.049857783 	0.65173741
0.0036180905 	-0.018058125 	-0.076713459 	0.62670455
0.003638191 	-0.018568465 	-0.096811747 	0.58480814
0.0036582915 	-0.018568465 	-0.096811747 	0.58480814
0.003678392 	-0.018058591 	-0.10712155 	0.53086978
0.0036984925 	-0.017437571 	-0.10690872 	0.47426181
0.003718593 	-0.017366625 	-0.097612197 	0.4235285
0.0037386935 	-0.017959699 	-0.081964007 	0.38274604
0.003758794 	-0.018898576 	-0.063097282 	0.35136245
0.0037788945 	-0.018898576 	-0.063097282 	0.35136245
0.003798995 	-0.019707404 	-0.043910683 	0.32621062
0.0038190955 	-0.019953698 	-0.026617019 	0.30359609
0.003839196 	-0.019338933 	-0.012512723 	0.28047345
0.0038592965 	-0.017728865 	-0.0020543681 	0.25479007
0.003879397 	-0.015172692 	0.0048478469 	0.22538424
0.0038994975 	-0.011875189 	0.0085371862 	0.19193899
0.003919598 	-0.0081933128 	0.0094419171 	0.15464707
0.0039396985 	-0.0046211443 	0.0080371729 	0.11399918
0.003959799 	-0.0017467793 	0.0049380014 	0.070476434
0.0039798995 	-0.00016932049 	0.0012037359 	0.024343869
0.004 	-0.00016932049 	0.0012037359 	0.024343869
