0 	0.011528881 	-0.019619958 	1.0881338
2.0100503e-05 	0.011528881 	-0.019619958 	1.0881338
4.0201005e-05 	0.011528881 	-0.019619958 	1.0881338
6.0301508e-05 	0.0027237315 	-0.017352701 	1.089043
8.040201e-05 	0.0027237315 	-0.017352701 	1.089043
0.00010050251 	0.0027237315 	-0.017352701 	1.089043
0.00012060302 	0.0022847394 	-0.012693248 	1.0884422
0.00014070352 	-0.0030204137 	-0.014604657 	1.0870282
0.00016080402 	-0.0030204137 	-0.014604657 	1.0870282
0.00018090452 	0.00068884247 	-0.011839875 	1.0864842
0.00020100503 	0.0034804215 	-0.0085540181 	1.0863812
0.00022110553 	0.0034804215 	-0.0085540181 	1.0863812
0.00024120603 	0.0050489096 	-0.005243473 	1.0831424
0.00026130653 	0.0035528865 	-0.0093014783 	1.0847215
0.00028140704 	0.0057221895 	-0.007191458 	1.0821225
0.00030150754 	0.0057221895 	-0.007191458 	1.0821225
0.00032160804 	0.0057221895 	-0.007191458 	1.0821225
0.00034170854 	0.0071698064 	-0.0015233821 	1.0748062
0.00036180905 	0.0071698064 	-0.0015233821 	1.0748062
0.00038190955 	0.0071698064 	-0.0015233821 	1.0748062
0.00040201005 	0.0071446637 	-0.00081409143 	1.0704615
0.00042211055 	0.0071446637 	-0.00081409143 	1.0704615
0.00044221106 	0.0071446637 	-0.00081409143 	1.0704615
0.00046231156 	0.0063121373 	-0.00034611512 	1.0662253
0.00048241206 	0.0063121373 	-0.00034611512 	1.0662253
0.00050251256 	0.0048360508 	0.00039389982 	1.0619947
0.00052261307 	0.0048360508 	0.00039389982 	1.0619947
0.00054271357 	0.0048360508 	0.00039389982 	1.0619947
0.00056281407 	0.0029886693 	0.0018777553 	1.0575115
0.00058291457 	0.0057119607 	0.00032053135 	1.0657333
0.00060301508 	0.0057119607 	0.00032053135 	1.0657333
0.00062311558 	0.0045413315 	0.0031034253 	1.0613355
0.00064321608 	0.0045413315 	0.0031034253 	1.0613355
0.00066331658 	0.0045413315 	0.0031034253 	1.0613355
0.00068341709 	0.0035240123 	0.0068624099 	1.0560772
0.00070351759 	-0.00081452259 	0.0080180246 	1.0469298
0.00072361809 	-0.0027162114 	0.012231314 	1.0409476
0.00074371859 	-0.0027162114 	0.012231314 	1.0409476
0.0007638191 	-0.0027162114 	0.012231314 	1.0409476
0.0007839196 	-0.0049845239 	0.016245104 	1.0350016
0.0008040201 	-0.0049845239 	0.016245104 	1.0350016
0.0008241206 	-0.0049845239 	0.016245104 	1.0350016
0.00084422111 	-0.0080396219 	0.019156219 	1.0295636
0.00086432161 	-0.0080396219 	0.019156219 	1.0295636
0.00088442211 	-0.0080396219 	0.019156219 	1.0295636
0.00090452261 	-0.012115655 	0.020399418 	1.0249894
0.00092462312 	-0.012115655 	0.020399418 	1.0249894
0.00094472362 	-0.017098998 	0.019858376 	1.0214794
0.00096482412 	-0.005534333 	0.024116808 	1.0263064
0.00098492462 	-0.005534333 	0.024116808 	1.0263064
0.0010050251 	-0.010481992 	0.023262414 	1.0223142
0.0010251256 	-0.023304103 	0.017727239 	1.0189993
0.0010452261 	-0.023304103 	0.017727239 	1.0189993
0.0010653266 	-0.030188569 	0.014684126 	1.0178708
0.0010854271 	-0.030188569 	0.014684126 	1.0178708
0.0011055276 	-0.030188569 	0.014684126 	1.0178708
0.0011256281 	-0.022613672 	0.017608123 	1.019047
0.0011457286 	-0.03632103 	0.011833953 	1.0181127
0.0011658291 	-0.03632103 	0.011833953 	1.0181127
0.0011859296 	-0.041119951 	0.0098381315 	1.0193178
0.0012060302 	-0.041119951 	0.0098381315 	1.0193178
0.0012261307 	-0.041119951 	0.0098381315 	1.0193178
0.0012462312 	-0.044183029 	0.0087263524 	1.0210319
0.0012663317 	-0.044183029 	0.0087263524 	1.0210319
0.0012864322 	-0.044183029 	0.0087263524 	1.0210319
0.0013065327 	-0.045600183 	0.0080502458 	1.0229612
0.0013266332 	-0.045600183 	0.0080502458 	1.0229612
0.0013467337 	-0.045600183 	0.0080502458 	1.0229612
0.0013668342 	-0.04573212 	0.0072163049 	1.0250188
0.0013869347 	-0.04573212 	0.0072163049 	1.0250188
0.0014070352 	-0.04573212 	0.0072163049 	1.0250188
0.0014271357 	-0.045019467 	0.0058777887 	1.0271878
0.0014472362 	-0.045019467 	0.0058777887 	1.0271878
0.0014673367 	-0.045019467 	0.0058777887 	1.0271878
0.0014874372 	-0.043829679 	0.0040970214 	1.0293874
0.0015075377 	-0.043829679 	0.0040970214 	1.0293874
0.0015276382 	-0.042435075 	0.0022406618 	1.0314493
0.0015477387 	-0.042435075 	0.0022406618 	1.0314493
0.0015678392 	-0.042435075 	0.0022406618 	1.0314493
0.0015879397 	-0.041011962 	0.00077335954 	1.0331863
0.0016080402 	-0.041011962 	0.00077335954 	1.0331863
0.0016281407 	-0.041011962 	0.00077335954 	1.0331863
0.0016482412 	-0.039654284 	0.00010816729 	1.0344549
0.0016683417 	-0.039654284 	0.00010816729 	1.0344549
0.0016884422 	-0.038388335 	0.00051758203 	1.03519
0.0017085427 	-0.038388335 	0.00051758203 	1.03519
0.0017286432 	-0.038388335 	0.00051758203 	1.03519
0.0017487437 	-0.037191877 	0.0021312604 	1.035386
0.0017688442 	-0.037191877 	0.0021312604 	1.035386
0.0017889447 	-0.037191877 	0.0021312604 	1.035386
0.0018090452 	-0.036022285 	0.0049333797 	1.0350784
0.0018291457 	-0.036022285 	0.0049333797 	1.0350784
0.0018492462 	-0.034856185 	0.008759037 	1.0343172
0.0018693467 	-0.034856185 	0.008759037 	1.0343172
0.0018894472 	-0.034856185 	0.008759037 	1.0343172
0.0019095477 	-0.03367733 	0.013287068 	1.0331735
0.0019296482 	-0.03367733 	0.013287068 	1.0331735
0.0019497487 	-0.0324511 	0.018086499 	1.0317496
0.0019698492 	-0.0324511 	0.018086499 	1.0317496
0.0019899497 	-0.031109844 	0.022708006 	1.0301918
0.0020100503 	-0.031109844 	0.022708006 	1.0301918
0.0020301508 	-0.031109844 	0.022708006 	1.0301918
0.0020502513 	-0.029556444 	0.026771927 	1.0286631
0.0020703518 	-0.029556444 	0.026771927 	1.0286631
0.0020904523 	-0.027715327 	0.030037256 	1.0273058
0.0021105528 	-0.027715327 	0.030037256 	1.0273058
0.0021306533 	-0.027715327 	0.030037256 	1.0273058
0.0021507538 	-0.02558331 	0.032420179 	1.0261877
0.0021708543 	-0.02558331 	0.032420179 	1.0261877
0.0021909548 	-0.023206067 	0.033970336 	1.0252878
0.0022110553 	-0.023206067 	0.033970336 	1.0252878
0.0022311558 	-0.020636914 	0.034848623 	1.0245181
0.0022512563 	-0.020636914 	0.034848623 	1.0245181
0.0022713568 	-0.017942046 	0.035308983 	1.0237776
0.0022914573 	-0.017942046 	0.035308983 	1.0237776
0.0023115578 	-0.017942046 	0.035308983 	1.0237776
0.0023316583 	-0.015206629 	0.035631285 	1.0229397
0.0023517588 	-0.015206629 	0.035631285 	1.0229397
0.0023718593 	-0.01257036 	0.036075651 	1.0218798
0.0023919598 	-0.01257036 	0.036075651 	1.0218798
0.0024120603 	-0.010207953 	0.036817963 	1.020492
0.0024321608 	-0.010207953 	0.036817963 	1.020492
0.0024522613 	-0.0082896255 	0.037922038 	1.0187331
0.0024723618 	-0.0082896255 	0.037922038 	1.0187331
0.0024924623 	-0.0069251373 	0.03935993 	1.0166411
0.0025125628 	-0.0069251373 	0.03935993 	1.0166411
0.0025326633 	-0.0060770115 	0.04106856 	1.0142897
0.0025527638 	-0.0060770115 	0.04106856 	1.0142897
0.0025728643 	-0.0055695883 	0.043021178 	1.0117169
0.0025929648 	-0.0055695883 	0.043021178 	1.0117169
0.0026130653 	-0.0050968281 	0.045257845 	1.0088563
0.0026331658 	-0.0050968281 	0.045257845 	1.0088563
0.0026532663 	-0.0042331985 	0.047871724 	1.0055476
0.0026733668 	-0.0042331985 	0.047871724 	1.0055476
0.0026934673 	-0.0025779648 	0.050930989 	1.001659
0.0027135678 	-0.0025779648 	0.050930989 	1.001659
0.0027336683 	0.00011576287 	0.05439316 	0.99725932
0.0027537688 	0.00011576287 	0.05439316 	0.99725932
0.0027738693 	0.0038607248 	0.058089699 	0.99261148
0.0027939698 	0.0038607248 	0.058089699 	0.99261148
0.0028140704 	0.0083761527 	0.061763763 	0.987989
0.0028341709 	0.0083761527 	0.061763763 	0.987989
0.0028542714 	0.013164802 	0.065252786 	0.98352528
0.0028743719 	0.017590306 	0.068544123 	0.97929883
0.0028944724 	0.017590306 	0.068544123 	0.97929883
0.0029145729 	0.020983356 	0.071637322 	0.97541622
0.0029346734 	0.020983356 	0.071637322 	0.97541622
0.0029547739 	0.022761674 	0.074384444 	0.97197543
0.0029748744 	0.022761674 	0.074384444 	0.97197543
0.0029949749 	0.022530127 	0.076429976 	0.96876982
0.0030150754 	0.020285449 	0.07727203 	0.96472758
0.0030351759 	0.020285449 	0.07727203 	0.96472758
0.0030552764 	0.016562369 	0.076520909 	0.95753787
0.0030753769 	0.016562369 	0.076520909 	0.95753787
0.0030954774 	0.01231758 	0.074383367 	0.94424168
0.0031155779 	0.0085450027 	0.072099855 	0.92264924
0.0031356784 	0.0085450027 	0.072099855 	0.92264924
0.0031557789 	0.0058571739 	0.071567805 	0.89234514
0.0031758794 	0.0058571739 	0.071567805 	0.89234514
0.0031959799 	0.0042559587 	0.0741031 	0.85465066
0.0032160804 	0.0030983284 	0.079224785 	0.81237388
0.0032361809 	0.0030983284 	0.079224785 	0.81237388
0.0032562814 	0.0013547489 	0.084055316 	0.76991858
0.0032763819 	-0.0018119553 	0.083730995 	0.73280528
0.0032964824 	-0.0018119553 	0.083730995 	0.73280528
0.0033165829 	-0.0065060247 	0.073773484 	0.70556716
0.0033366834 	-0.01220362 	0.053441697 	0.68930393
0.0033567839 	-0.01220362 	0.053441697 	0.68930393
0.0033768844 	-0.018235101 	0.026740781 	0.68137312
0.0033969849 	-0.024026994 	-0.00018293971 	0.67763235
0.0034170854 	-0.024026994 	-0.00018293971 	0.67763235
0.0034371859 	-0.029116427 	-0.022745338 	0.6749349
0.0034572864 	-0.033059053 	-0.039536178 	0.67177956
0.0034773869 	-0.035390618 	-0.051319365 	0.66771672
0.0034974874 	-0.035390618 	-0.051319365 	0.66771672
0.0035175879 	-0.035772778 	-0.059310837 	0.66254083
0.0035376884 	-0.034133467 	-0.064163329 	0.65599701
0.0035577889 	-0.030656142 	-0.065972022 	0.64790528
0.0035778894 	-0.030656142 	-0.065972022 	0.64790528
0.0035979899 	-0.025732391 	-0.064681377 	0.6383174
0.0036180905 	-0.019886048 	-0.060421744 	0.62749461
0.003638191 	-0.013688918 	-0.053630361 	0.61573666
0.0036582915 	-0.013688918 	-0.053630361 	0.61573666
0.003678392 	-0.0076958059 	-0.045027912 	0.60318947
0.0036984925 	-0.0024178207 	-0.035521457 	0.58970872
0.003718593 	0.0017678712 	-0.026073309 	0.57477574
0.0037386935 	0.0046712534 	-0.017555703 	0.55742693
0.003758794 	0.0062622676 	-0.010597395 	0.53619263
0.0037788945 	0.0062622676 	-0.010597395 	0.53619263
0.003798995 	0.0066922217 	-0.0054785956 	0.50919204
0.0038190955 	0.0062723237 	-0.0020978589 	0.47456971
0.003839196 	0.0053718133 	-8.2077025e-05 	0.43126812
0.0038592965 	0.0043029524 	0.0010225937 	0.37976352
0.003879397 	0.0032552157 	0.0015876579 	0.32215963
0.0038994975 	0.0023039042 	0.0018487067 	0.26145312
0.003919598 	0.0014690361 	0.0019328727 	0.2004563
0.0039396985 	0.0007733965 	0.0018821554 	0.14102937
0.003959799 	0.00026727142 	0.0016227284 	0.083822706
0.0039798995 	1.6812695e-05 	0.000883376 	0.02823089
0.004 	1.6812695e-05 	0.000883376 	0.02823089
