0 	-0.032189869 	-0.010427622 	0.99043947
2.0100503e-05 	-0.032189869 	-0.010427622 	0.99043947
4.0201005e-05 	-0.032189869 	-0.010427622 	0.99043947
6.0301508e-05 	-0.024257326 	-0.027970329 	0.99297706
8.040201e-05 	-0.024257326 	-0.027970329 	0.99297706
0.00010050251 	-0.024257326 	-0.027970329 	0.99297706
0.00012060302 	-0.018651445 	-0.034991643 	0.99572434
0.00014070352 	-0.018651445 	-0.034991643 	0.99572434
0.00016080402 	-0.018651445 	-0.034991643 	0.99572434
0.00018090452 	-0.012752743 	-0.039650514 	0.99838016
0.00020100503 	-0.012752743 	-0.039650514 	0.99838016
0.00022110553 	-0.012752743 	-0.039650514 	0.99838016
0.00024120603 	-0.005860384 	-0.042653753 	1.0007865
0.00026130653 	-0.005860384 	-0.042653753 	1.0007865
0.00028140704 	0.0019081339 	-0.043940534 	1.0029645
0.00030150754 	0.0019081339 	-0.043940534 	1.0029645
0.00032160804 	0.0019081339 	-0.043940534 	1.0029645
0.00034170854 	0.010110698 	-0.043439974 	1.0050556
0.00036180905 	0.010110698 	-0.043439974 	1.0050556
0.00038190955 	0.010110698 	-0.043439974 	1.0050556
0.00040201005 	0.018174615 	-0.041199094 	1.007228
0.00042211055 	0.018174615 	-0.041199094 	1.007228
0.00044221106 	0.018174615 	-0.041199094 	1.007228
0.00046231156 	0.02552655 	-0.037415638 	1.0095867
0.00048241206 	0.02552655 	-0.037415638 	1.0095867
0.00050251256 	0.031705815 	-0.032384196 	1.0121124
0.00052261307 	0.031705815 	-0.032384196 	1.0121124
0.00054271357 	0.031705815 	-0.032384196 	1.0121124
0.00056281407 	0.036444297 	-0.026508572 	1.0146414
0.00058291457 	0.036444297 	-0.026508572 	1.0146414
0.00060301508 	0.036444297 	-0.026508572 	1.0146414
0.00062311558 	0.039709181 	-0.020286934 	1.0168978
0.00064321608 	0.039709181 	-0.020286934 	1.0168978
0.00066331658 	0.039709181 	-0.020286934 	1.0168978
0.00068341709 	0.04168389 	-0.014288644 	1.0185916
0.00070351759 	0.04168389 	-0.014288644 	1.0185916
0.00072361809 	0.042637235 	-0.0090290333 	1.0195369
0.00074371859 	0.042637235 	-0.0090290333 	1.0195369
0.0007638191 	0.042637235 	-0.0090290333 	1.0195369
0.0007839196 	0.04279449 	-0.0048747899 	1.0197447
0.0008040201 	0.04279449 	-0.0048747899 	1.0197447
0.0008241206 	0.04279449 	-0.0048747899 	1.0197447
0.00084422111 	0.0422996 	-0.0020021452 	1.0194112
0.00086432161 	0.0422996 	-0.0020021452 	1.0194112
0.00088442211 	0.0422996 	-0.0020021452 	1.0194112
0.00090452261 	0.040524834 	0.0013995653 	1.0083451
0.00092462312 	0.040524834 	0.0013995653 	1.0083451
0.00094472362 	0.037882901 	0.0011272557 	1.0081008
0.00096482412 	0.037882901 	0.0011272557 	1.0081008
0.00098492462 	0.037882901 	0.0011272557 	1.0081008
0.0010050251 	0.034228632 	-0.00026450092 	1.0088309
0.0010251256 	0.034228632 	-0.00026450092 	1.0088309
0.0010452261 	0.034228632 	-0.00026450092 	1.0088309
0.0010653266 	0.029087229 	-0.0028115793 	1.0112435
0.0010854271 	0.029087229 	-0.0028115793 	1.0112435
0.0011055276 	0.029087229 	-0.0028115793 	1.0112435
0.0011256281 	0.022239874 	-0.0061327178 	1.0143068
0.0011457286 	0.022239874 	-0.0061327178 	1.0143068
0.0011658291 	0.022239874 	-0.0061327178 	1.0143068
0.0011859296 	0.013584238 	-0.009428703 	1.0157728
0.0012060302 	0.013584238 	-0.009428703 	1.0157728
0.0012261307 	0.013584238 	-0.009428703 	1.0157728
0.0012462312 	0.0037461876 	-0.011428883 	1.0143872
0.0012663317 	0.0037461876 	-0.011428883 	1.0143872
0.0012864322 	0.0037461876 	-0.011428883 	1.0143872
0.0013065327 	-0.0060477322 	-0.011461825 	1.0118226
0.0013266332 	-0.0060477322 	-0.011461825 	1.0118226
0.0013467337 	-0.0060477322 	-0.011461825 	1.0118226
0.0013668342 	-0.014725889 	-0.010387942 	1.01095
0.0013869347 	-0.014725889 	-0.010387942 	1.01095
0.0014070352 	-0.014725889 	-0.010387942 	1.01095
0.0014271357 	-0.022036755 	-0.0097385194 	1.0123327
0.0014472362 	-0.022036755 	-0.0097385194 	1.0123327
0.0014673367 	-0.022036755 	-0.0097385194 	1.0123327
0.0014874372 	-0.028129929 	-0.010560155 	1.0139201
0.0015075377 	-0.028129929 	-0.010560155 	1.0139201
0.0015276382 	-0.032946913 	-0.013071997 	1.0138127
0.0015477387 	-0.032946913 	-0.013071997 	1.0138127
0.0015678392 	-0.032946913 	-0.013071997 	1.0138127
0.0015879397 	-0.036358278 	-0.016917197 	1.011805
0.0016080402 	-0.036358278 	-0.016917197 	1.011805
0.0016281407 	-0.036358278 	-0.016917197 	1.011805
0.0016482412 	-0.038360072 	-0.021428667 	1.0085245
0.0016683417 	-0.038360072 	-0.021428667 	1.0085245
0.0016884422 	-0.039070724 	-0.025864321 	1.0044353
0.0017085427 	-0.039070724 	-0.025864321 	1.0044353
0.0017286432 	-0.039070724 	-0.025864321 	1.0044353
0.0017487437 	-0.038628977 	-0.029587941 	0.99966954
0.0017688442 	-0.038628977 	-0.029587941 	0.99966954
0.0017889447 	-0.038628977 	-0.029587941 	0.99966954
0.0018090452 	-0.037183657 	-0.032217697 	0.99420501
0.0018291457 	-0.037183657 	-0.032217697 	0.99420501
0.0018492462 	-0.034943163 	-0.033655519 	0.98802229
0.0018693467 	-0.034943163 	-0.033655519 	0.98802229
0.0018894472 	-0.034943163 	-0.033655519 	0.98802229
0.0019095477 	-0.032196036 	-0.033999447 	0.98122661
0.0019296482 	-0.032196036 	-0.033999447 	0.98122661
0.0019497487 	-0.029322948 	-0.033379393 	0.97408491
0.0019698492 	-0.029322948 	-0.033379393 	0.97408491
0.0019899497 	-0.026771358 	-0.031872184 	0.96694817
0.0020100503 	-0.026771358 	-0.031872184 	0.96694817
0.0020301508 	-0.026771358 	-0.031872184 	0.96694817
0.0020502513 	-0.02493668 	-0.029460503 	0.96013069
0.0020703518 	-0.02493668 	-0.029460503 	0.96013069
0.0020904523 	-0.024006572 	-0.026058345 	0.95382496
0.0021105528 	-0.024006572 	-0.026058345 	0.95382496
0.0021306533 	-0.024006572 	-0.026058345 	0.95382496
0.0021507538 	-0.023853249 	-0.021539809 	0.94809164
0.0021708543 	-0.023853249 	-0.021539809 	0.94809164
0.0021909548 	-0.024016012 	-0.015757209 	0.94287504
0.0022110553 	-0.024016012 	-0.015757209 	0.94287504
0.0022311558 	-0.02374704 	-0.008601659 	0.93802523
0.0022512563 	-0.02374704 	-0.008601659 	0.93802523
0.0022713568 	-0.022233494 	-0.00011509937 	0.93336915
0.0022914573 	-0.022233494 	-0.00011509937 	0.93336915
0.0023115578 	-0.022233494 	-0.00011509937 	0.93336915
0.0023316583 	-0.018817577 	0.0094260817 	0.92878938
0.0023517588 	-0.018817577 	0.0094260817 	0.92878938
0.0023718593 	-0.013221377 	0.019295932 	0.92434901
0.0023919598 	-0.013221377 	0.019295932 	0.92434901
0.0024120603 	-0.0055701449 	0.02843913 	0.92029047
0.0024321608 	-0.0055701449 	0.02843913 	0.92029047
0.0024522613 	0.0038151124 	0.035731781 	0.91692301
0.0024723618 	0.0038151124 	0.035731781 	0.91692301
0.0024924623 	0.014342087 	0.040222259 	0.91454647
0.0025125628 	0.014342087 	0.040222259 	0.91454647
0.0025326633 	0.025315797 	0.041463099 	0.91331506
0.0025527638 	0.025315797 	0.041463099 	0.91331506
0.0025728643 	0.036165786 	0.039517437 	0.91311713
0.0025929648 	0.036165786 	0.039517437 	0.91311713
0.0026130653 	0.046377724 	0.034896278 	0.9135501
0.0026331658 	0.046377724 	0.034896278 	0.9135501
0.0026532663 	0.05558742 	0.028396329 	0.91405647
0.0026733668 	0.05558742 	0.028396329 	0.91405647
0.0026934673 	0.063444713 	0.020853409 	0.91421047
0.0027135678 	0.063444713 	0.020853409 	0.91421047
0.0027336683 	0.069639657 	0.012990831 	0.91398704
0.0027537688 	0.069639657 	0.012990831 	0.91398704
0.0027738693 	0.074047252 	0.0053120723 	0.91378999
0.0027939698 	0.074047252 	0.0053120723 	0.91378999
0.0028140704 	0.076670394 	-0.00177621 	0.91409048
0.0028341709 	0.076670394 	-0.00177621 	0.91409048
0.0028542714 	0.077817374 	-0.0077826802 	0.91485392
0.0028743719 	0.078024308 	-0.012233083 	0.91527166
0.0028944724 	0.078024308 	-0.012233083 	0.91527166
0.0029145729 	0.077848529 	-0.014995455 	0.91419104
0.0029346734 	0.077848529 	-0.014995455 	0.91419104
0.0029547739 	0.077612984 	-0.016584201 	0.91091063
0.0029748744 	0.077612984 	-0.016584201 	0.91091063
0.0029949749 	0.077167196 	-0.017988492 	0.90578388
0.0030150754 	0.075994329 	-0.020015707 	0.90016522
0.0030351759 	0.075994329 	-0.020015707 	0.90016522
0.0030552764 	0.07356246 	-0.022635509 	0.89571002
0.0030753769 	0.07356246 	-0.022635509 	0.89571002
0.0030954774 	0.069605758 	-0.024935509 	0.89346725
0.0031155779 	0.064226931 	-0.02574632 	0.89335524
0.0031356784 	0.064226931 	-0.02574632 	0.89335524
0.0031557789 	0.057776458 	-0.024480498 	0.8942782
0.0031758794 	0.057776458 	-0.024480498 	0.8942782
0.0031959799 	0.050704418 	-0.021448056 	0.89472096
0.0032160804 	0.043465841 	-0.017570213 	0.89340643
0.0032361809 	0.043465841 	-0.017570213 	0.89340643
0.0032562814 	0.036399618 	-0.013807709 	0.88973715
0.0032763819 	0.029686555 	-0.010679163 	0.88387392
0.0032964824 	0.029686555 	-0.010679163 	0.88387392
0.0033165829 	0.023437002 	-0.0081389215 	0.87639955
0.0033366834 	0.017803907 	-0.0057536803 	0.86771455
0.0033567839 	0.017803907 	-0.0057536803 	0.86771455
0.0033768844 	0.013045764 	-0.003018023 	0.85752255
0.0033969849 	0.0094902465 	0.00038534397 	0.84473918
0.0034170854 	0.0094902465 	0.00038534397 	0.84473918
0.0034371859 	0.0074120697 	0.004476453 	0.82788465
0.0034572864 	0.0069018908 	0.009006616 	0.80571529
0.0034773869 	0.0077999599 	0.013562522 	0.77776612
0.0034974874 	0.0077999599 	0.013562522 	0.77776612
0.0035175879 	0.009728086 	0.017687327 	0.74459134
0.0035376884 	0.01218685 	0.020979868 	0.70764863
0.0035577889 	0.014663684 	0.023141165 	0.66892931
0.0035778894 	0.014663684 	0.023141165 	0.66892931
0.0035979899 	0.016716747 	0.023992341 	0.63048131
0.0036180905 	0.018035277 	0.023461591 	0.59397466
0.003638191 	0.018468998 	0.021560453 	0.5604019
0.0036582915 	0.018468998 	0.021560453 	0.5604019
0.003678392 	0.018022232 	0.018375332 	0.52996693
0.0036984925 	0.016823548 	0.014083735 	0.50214508
0.003718593 	0.015080605 	0.0089790208 	0.47587932
0.0037386935 	0.013031139 	0.0034744584 	0.44985762
0.003758794 	0.01089966 	-0.001932109 	0.42280521
0.0037788945 	0.01089966 	-0.001932109 	0.42280521
0.003798995 	0.0088664683 	-0.0067380758 	0.39372309
0.0038190955 	0.0070511643 	-0.010529737 	0.36201344
0.003839196 	0.0055088242 	-0.013052369 	0.32748031
0.0038592965 	0.0042380296 	-0.014231204 	0.29023092
0.003879397 	0.0031986725 	-0.014146585 	0.25053312
0.0038994975 	0.0023337084 	-0.012979448 	0.20868693
0.003919598 	0.0015913006 	-0.010950043 	0.16495026
0.0039396985 	0.0009457818 	-0.0082699388 	0.11952944
0.003959799 	0.00041598394 	-0.0051240469 	0.072622647
0.0039798995 	5.6125949e-05 	-0.0017010255 	0.024512339
0.004 	5.6125949e-05 	-0.0017010255 	0.024512339
