0 	-0.035137318 	-0.0037938633 	1.0930182
5.5555556e-05 	0.012531365 	-0.03780276 	1.0845947
0.00011111111 	0.014365185 	-0.039661179 	1.0797825
0.00016666667 	0.01435222 	-0.04200195 	1.0749442
0.00022222222 	0.014099703 	-0.044106593 	1.0701879
0.00027777778 	0.014087484 	-0.045748936 	1.0654945
0.00033333333 	0.014472167 	-0.046863922 	1.0607427
0.00038888889 	0.015258688 	-0.047423117 	1.0557576
0.00044444444 	0.016357077 	-0.047410434 	1.0503681
0.0005 	0.017644127 	-0.046807629 	1.0444484
0.00055555556 	0.019016881 	-0.045607432 	1.0378879
0.00061111111 	0.020460093 	-0.043852831 	1.0305319
0.00066666667 	0.022058081 	-0.041702301 	1.0222272
0.00072222222 	0.02390579 	-0.039433972 	1.0130004
0.00077777778 	0.025989441 	-0.037320255 	1.0032148
0.00083333333 	0.028111073 	-0.035438977 	0.99348451
0.00088888889 	0.029980935 	-0.033583416 	0.98443701
0.00094444444 	0.03132854 	-0.031253629 	0.9765299
0.001 	0.03207205 	-0.027872129 	0.96932333
0.0010617199 	0.032215485 	-0.022915511 	0.96310095
0.0011225874 	0.032111553 	-0.016706776 	0.95782045
0.0011826143 	0.031903168 	-0.009834057 	0.95332596
0.0012418122 	0.031431933 	-0.002962042 	0.94977027
0.0013001926 	0.030345871 	0.0034597517 	0.94735256
0.0013577668 	0.028316504 	0.0093949116 	0.94603515
0.0014145458 	0.025217055 	0.0152105 	0.94545925
0.0014705407 	0.021178019 	0.021434351 	0.94501159
0.0015257623 	0.016585773 	0.028438733 	0.94399822
0.0015802213 	0.011993421 	0.036118954 	0.94186915
0.0016339282 	0.0079172307 	0.043851327 	0.93836284
0.0016868934 	0.004701318 	0.05068854 	0.93352114
0.0017391271 	0.0024628904 	0.055753753 	0.9276077
0.0017906395 	0.0011036593 	0.058486429 	0.92100314
0.0018414404 	0.00042090237 	0.058739133 	0.91408227
0.0018915398 	0.00020813523 	0.05673119 	0.90710389
0.0019409473 	0.0003018489 	0.052926573 	0.90018078
0.0019896725 	0.00059038143 	0.047888086 	0.89337723
0.0020377248 	0.00099891356 	0.042128778 	0.88690831
0.0020851134 	0.0014580931 	0.035962939 	0.8812271
0.0021318476 	0.0019403818 	0.02950765 	0.87693412
0.0021779364 	0.0025703024 	0.022852509 	0.87456069
0.0022233887 	0.003624493 	0.016242706 	0.87440578
0.0022682133 	0.0053211796 	0.010024587 	0.87637295
0.0023124189 	0.0075925822 	0.0044476015 	0.87974899
0.0023560139 	0.010088848 	-0.00044854649 	0.88329301
0.0023990069 	0.012310933 	-0.004906564 	0.88590997
0.0024414062 	0.013666035 	-0.0094638059 	0.88712035
0.0024832199 	0.013833415 	-0.014257938 	0.88671431
0.0025244562 	0.012864778 	-0.018858755 	0.8842564
0.002565123 	0.011062299 	-0.022528003 	0.87922509
0.0026052281 	0.0087944229 	-0.024671078 	0.87134924
0.0026447794 	0.0062645925 	-0.0251249 	0.86085854
0.0026837845 	0.0036770616 	-0.024105711 	0.84860862
0.0027222509 	0.0012191622 	-0.0219395 	0.83594493
0.0027601861 	-0.00096030168 	-0.018905024 	0.82427864
0.0027975974 	-0.0026895433 	-0.015230536 	0.81464468
0.002834492 	-0.0038424576 	-0.011157377 	0.80745118
0.0028708772 	-0.0043083576 	-0.0069409395 	0.80254328
0.0029067598 	-0.0040004138 	-0.0028129817 	0.79941864
0.0029421469 	-0.0028562915 	0.0010389916 	0.79748052
0.0029770452 	-0.00087837477 	0.0045020997 	0.79618061
0.0030114616 	0.0018745443 	0.0075312437 	0.79510568
0.0030454028 	0.0053254926 	0.010127551 	0.79398069
0.0030788752 	0.0093523726 	0.012309974 	0.79265557
0.0031118853 	0.013807386 	0.014106232 	0.79107572
0.0031444395 	0.018528132 	0.015550246 	0.78925452
0.0031765442 	0.023342377 	0.01666396 	0.78725134
0.0032082055 	0.028078329 	0.017468003 	0.78514191
0.0032394295 	0.03258139 	0.017984304 	0.78299236
0.0032702223 	0.036730923 	0.018246174 	0.78083942
0.0033005899 	0.040445347 	0.018296431 	0.7786841
0.0033305381 	0.043676355 	0.018180023 	0.77650205
0.0033600727 	0.046396538 	0.017929194 	0.77427368
0.0033891994 	0.048582992 	0.01755247 	0.77202074
0.0034179239 	0.050205625 	0.017029156 	0.76982683
0.0034462517 	0.051227688 	0.016315619 	0.76782473
0.0034741882 	0.051615867 	0.015359953 	0.76614981
0.003501739 	0.051353531 	0.014123799 	0.76488151
0.0035289093 	0.050448682 	0.012601245 	0.7640096
0.0035557043 	0.048930432 	0.01082638 	0.76344866
0.0035821293 	0.046834918 	0.0088756765 	0.76307965
0.0036081894 	0.044191146 	0.0068853426 	0.76275031
0.0036338895 	0.041020355 	0.0050973864 	0.76217851
0.0036592348 	0.037361122 	0.0038942086 	0.76077544
0.00368423 	0.033313214 	0.0037331629 	0.7574905
0.00370888 	0.02907385 	0.0049241864 	0.75078864
0.0037331896 	0.024929072 	0.0073399942 	0.73877579
0.0037571635 	0.021172963 	0.010289982 	0.71939976
0.0037808063 	0.017966518 	0.012737328 	0.69071166
0.0038041226 	0.015237959 	0.013756113 	0.65124252
0.0038271169 	0.012755827 	0.012878924 	0.60038214
0.0038497936 	0.010332685 	0.010169278 	0.53855204
0.0038721572 	0.0079528029 	0.0062305596 	0.46717703
0.0038942119 	0.0057078947 	0.0021230094 	0.38845077
0.003915962 	0.0036968928 	-0.0010038495 	0.3048343
0.0039374118 	0.0020130986 	-0.0024238571 	0.21848631
0.0039585653 	0.00076834521 	-0.002110153 	0.13101597
0.0039794267 	8.1952757e-05 	-0.00070408741 	0.043569258
0.004 	9.1834108e-05 	-0.0039357758 	0.036215497
