0 	0.014061312 	-0.013530883 	1.0447153
2.0100503e-05 	-0.012716856 	-0.01001957 	1.0414931
4.0201005e-05 	-0.012716856 	-0.01001957 	1.0414931
6.0301508e-05 	-0.014226142 	5.3539253e-06 	1.0405421
8.040201e-05 	-0.014226142 	5.3539253e-06 	1.0405421
0.00010050251 	-0.014226142 	5.3539253e-06 	1.0405421
0.00012060302 	-0.013311897 	0.0046195668 	1.041621
0.00014070352 	-0.013311897 	0.0046195668 	1.041621
0.00016080402 	-0.013311897 	0.0046195668 	1.041621
0.00018090452 	-0.013383447 	0.0075108127 	1.0434611
0.00020100503 	-0.013383447 	0.0075108127 	1.0434611
0.00022110553 	-0.013383447 	0.0075108127 	1.0434611
0.00024120603 	-0.014579946 	0.0090812526 	1.0441657
0.00026130653 	-0.014579946 	0.0090812526 	1.0441657
0.00028140704 	-0.016630145 	0.0095045205 	1.0420411
0.00030150754 	-0.016630145 	0.0095045205 	1.0420411
0.00032160804 	-0.016630145 	0.0095045205 	1.0420411
0.00034170854 	-0.01917779 	0.0091702809 	1.0363376
0.00036180905 	-0.01917779 	0.0091702809 	1.0363376
0.00038190955 	-0.01917779 	0.0091702809 	1.0363376
0.00040201005 	-0.022002913 	0.0084868812 	1.0275051
0.00042211055 	-0.022002913 	0.0084868812 	1.0275051
0.00044221106 	-0.022002913 	0.0084868812 	1.0275051
0.00046231156 	-0.025122451 	0.0076079061 	1.0168903
0.00048241206 	-0.025122451 	0.0076079061 	1.0168903
0.00050251256 	-0.028711195 	0.0064560858 	1.0060943
0.00052261307 	-0.028711195 	0.0064560858 	1.0060943
0.00054271357 	-0.028711195 	0.0064560858 	1.0060943
0.00056281407 	-0.032876453 	0.0050358378 	0.9963707
0.00058291457 	-0.032876453 	0.0050358378 	0.9963707
0.00060301508 	-0.032876453 	0.0050358378 	0.9963707
0.00062311558 	-0.03744267 	0.0036740837 	0.98832904
0.00064321608 	-0.03744267 	0.0036740837 	0.98832904
0.00066331658 	-0.03744267 	0.0036740837 	0.98832904
0.00068341709 	-0.041961956 	0.0028859585 	0.98190374
0.00070351759 	-0.041961956 	0.0028859585 	0.98190374
0.00072361809 	-0.045975419 	0.0029531239 	0.97643535
0.00074371859 	-0.045975419 	0.0029531239 	0.97643535
0.0007638191 	-0.045975419 	0.0029531239 	0.97643535
0.0007839196 	-0.049290349 	0.0036718973 	0.97080838
0.0008040201 	-0.049290349 	0.0036718973 	0.97080838
0.0008241206 	-0.049290349 	0.0036718973 	0.97080838
0.00084422111 	-0.052040419 	0.004477437 	0.96371713
0.00086432161 	-0.052040419 	0.004477437 	0.96371713
0.00088442211 	-0.052040419 	0.004477437 	0.96371713
0.00090452261 	-0.054483438 	0.0048171297 	0.95412544
0.00092462312 	-0.054483438 	0.0048171297 	0.95412544
0.00094472362 	-0.056748568 	0.0044905687 	0.94176423
0.00096482412 	-0.056748568 	0.0044905687 	0.94176423
0.00098492462 	-0.056748568 	0.0044905687 	0.94176423
0.0010050251 	-0.059128463 	0.0035861983 	0.92640836
0.0010251256 	-0.059128463 	0.0035861983 	0.92640836
0.0010452261 	-0.059128463 	0.0035861983 	0.92640836
0.0010653266 	-0.061677405 	0.0023796067 	0.90884414
0.0010854271 	-0.061677405 	0.0023796067 	0.90884414
0.0011055276 	-0.061677405 	0.0023796067 	0.90884414
0.0011256281 	-0.064185552 	0.0020769912 	0.89207606
0.0011457286 	-0.064185552 	0.0020769912 	0.89207606
0.0011658291 	-0.05724434 	0.013809017 	0.90998618
0.0011859296 	-0.059428979 	0.01386371 	0.89609844
0.0012060302 	-0.059428979 	0.01386371 	0.89609844
0.0012261307 	-0.059428979 	0.01386371 	0.89609844
0.0012462312 	-0.067682696 	0.0056462106 	0.86467891
0.0012663317 	-0.067682696 	0.0056462106 	0.86467891
0.0012864322 	-0.067682696 	0.0056462106 	0.86467891
0.0013065327 	-0.068073089 	0.0097803159 	0.85535825
0.0013266332 	-0.068073089 	0.0097803159 	0.85535825
0.0013467337 	-0.068073089 	0.0097803159 	0.85535825
0.0013668342 	-0.06731141 	0.015313633 	0.84940121
0.0013869347 	-0.06731141 	0.015313633 	0.84940121
0.0014070352 	-0.06731141 	0.015313633 	0.84940121
0.0014271357 	-0.065452465 	0.021920127 	0.84673116
0.0014472362 	-0.06171392 	0.023601079 	0.85704251
0.0014673367 	-0.06171392 	0.023601079 	0.85704251
0.0014874372 	-0.059550943 	0.028208792 	0.85213335
0.0015075377 	-0.062613822 	0.029160163 	0.84693366
0.0015276382 	-0.058958632 	0.036603026 	0.84942631
0.0015477387 	-0.058958632 	0.036603026 	0.84942631
0.0015678392 	-0.058958632 	0.036603026 	0.84942631
0.0015879397 	-0.054640653 	0.043904236 	0.85356841
0.0016080402 	-0.054640653 	0.043904236 	0.85356841
0.0016281407 	-0.054640653 	0.043904236 	0.85356841
0.0016482412 	-0.049826422 	0.050792484 	0.85874313
0.0016683417 	-0.049826422 	0.050792484 	0.85874313
0.0016884422 	-0.044676579 	0.057109317 	0.86438295
0.0017085427 	-0.044676579 	0.057109317 	0.86438295
0.0017286432 	-0.044676579 	0.057109317 	0.86438295
0.0017487437 	-0.039350359 	0.062790422 	0.86997431
0.0017688442 	-0.039350359 	0.062790422 	0.86997431
0.0017889447 	-0.039350359 	0.062790422 	0.86997431
0.0018090452 	-0.033970878 	0.067823872 	0.8750738
0.0018291457 	-0.033970878 	0.067823872 	0.8750738
0.0018492462 	-0.028624743 	0.072237316 	0.87932994
0.0018693467 	-0.028624743 	0.072237316 	0.87932994
0.0018894472 	-0.028624743 	0.072237316 	0.87932994
0.0019095477 	-0.023377381 	0.076052966 	0.88252034
0.0019296482 	-0.023377381 	0.076052966 	0.88252034
0.0019497487 	-0.018277869 	0.079260385 	0.88458332
0.0019698492 	-0.018277869 	0.079260385 	0.88458332
0.0019899497 	-0.013440831 	0.081813944 	0.88566146
0.0020100503 	-0.013440831 	0.081813944 	0.88566146
0.0020301508 	-0.013440831 	0.081813944 	0.88566146
0.0020502513 	-0.009011132 	0.083674693 	0.88606148
0.0020703518 	-0.009011132 	0.083674693 	0.88606148
0.0020904523 	-0.0051545207 	0.084822686 	0.88614995
0.0021105528 	-0.0051545207 	0.084822686 	0.88614995
0.0021306533 	-0.0051545207 	0.084822686 	0.88614995
0.0021507538 	-0.0020263147 	0.085310696 	0.88623141
0.0021708543 	-0.0020263147 	0.085310696 	0.88623141
0.0021909548 	0.0003193124 	0.085201087 	0.88646832
0.0022110553 	0.0003193124 	0.085201087 	0.88646832
0.0022311558 	0.0018883652 	0.084562164 	0.88680811
0.0022512563 	0.0018883652 	0.084562164 	0.88680811
0.0022713568 	0.0027915343 	0.083439761 	0.8869138
0.0022914573 	0.0027915343 	0.083439761 	0.8869138
0.0023115578 	0.0027915343 	0.083439761 	0.8869138
0.0023316583 	0.0032702369 	0.081847152 	0.8860384
0.0023517588 	0.0032702369 	0.081847152 	0.8860384
0.0023718593 	0.0036623763 	0.079811537 	0.88295042
0.0023919598 	0.0036623763 	0.079811537 	0.88295042
0.0024120603 	0.0043314161 	0.077425967 	0.87607715
0.0024321608 	0.0043314161 	0.077425967 	0.87607715
0.0024522613 	0.0055174724 	0.074799967 	0.86424315
0.0024723618 	0.0055174724 	0.074799967 	0.86424315
0.0024924623 	0.0070825699 	0.071710071 	0.8482352
0.0025125628 	0.0070825699 	0.071710071 	0.8482352
0.0025326633 	0.0083249025 	0.067132764 	0.83221387
0.0025527638 	0.0083249025 	0.067132764 	0.83221387
0.0025728643 	0.0083021433 	0.05949324 	0.82221476
0.0025929648 	0.0083021433 	0.05949324 	0.82221476
0.0026130653 	0.006703946 	0.048166349 	0.82059956
0.0026331658 	0.006703946 	0.048166349 	0.82059956
0.0026532663 	0.0043758237 	0.035000541 	0.82140954
0.0026733668 	0.0043758237 	0.035000541 	0.82140954
0.0026934673 	0.002616116 	0.02336615 	0.81346903
0.0027135678 	0.002616116 	0.02336615 	0.81346903
0.0027336683 	0.0018176367 	0.014961558 	0.79013223
0.0027537688 	0.0018176367 	0.014961558 	0.79013223
0.0027738693 	0.0012169975 	0.0080626213 	0.75540249
0.0027939698 	0.0012169975 	0.0080626213 	0.75540249
0.0028140704 	-0.00021524278 	-0.00026592396 	0.71959798
0.0028341709 	-0.00021524278 	-0.00026592396 	0.71959798
0.0028542714 	-0.0028136544 	-0.011354284 	0.69080882
0.0028743719 	-0.0062681142 	-0.024377744 	0.67106472
0.0028944724 	-0.0062681142 	-0.024377744 	0.67106472
0.0029145729 	-0.010181494 	-0.037494813 	0.65800237
0.0029346734 	-0.010181494 	-0.037494813 	0.65800237
0.0029547739 	-0.014137669 	-0.04911235 	0.64807708
0.0029748744 	-0.014137669 	-0.04911235 	0.64807708
0.0029949749 	-0.01779283 	-0.058363667 	0.63865118
0.0030150754 	-0.020940873 	-0.06505827 	0.62855586
0.0030351759 	-0.020940873 	-0.06505827 	0.62855586
0.0030552764 	-0.02352204 	-0.069404104 	0.61771243
0.0030753769 	-0.02352204 	-0.069404104 	0.61771243
0.0030954774 	-0.025579404 	-0.071746069 	0.60655448
0.0031155779 	-0.027199253 	-0.072410057 	0.59564316
0.0031356784 	-0.027199253 	-0.072410057 	0.59564316
0.0031557789 	-0.028462956 	-0.071642 	0.58551263
0.0031758794 	-0.028462956 	-0.071642 	0.58551263
0.0031959799 	-0.029421785 	-0.069606208 	0.57663994
0.0032160804 	-0.030097536 	-0.066414738 	0.5694475
0.0032361809 	-0.030097536 	-0.066414738 	0.5694475
0.0032562814 	-0.030493609 	-0.06216909 	0.56430053
0.0032763819 	-0.030605011 	-0.056996215 	0.56148973
0.0032964824 	-0.030605011 	-0.056996215 	0.56148973
0.0033165829 	-0.030425499 	-0.051068336 	0.56120421
0.0033366834 	-0.029948783 	-0.044603874 	0.56349969
0.0033567839 	-0.029948783 	-0.044603874 	0.56349969
0.0033768844 	-0.029169577 	-0.037850773 	0.56827023
0.0033969849 	-0.028084282 	-0.031059283 	0.5752286
0.0034170854 	-0.028084282 	-0.031059283 	0.5752286
0.0034371859 	-0.026694375 	-0.024451889 	0.58390287
0.0034572864 	-0.025012431 	-0.018200918 	0.59365502
0.0034773869 	-0.02306555 	-0.01242209 	0.60372248
0.0034974874 	-0.02306555 	-0.01242209 	0.60372248
0.0035175879 	-0.02090541 	-0.0071759509 	0.61327674
0.0035376884 	-0.018610526 	-0.0024722284 	0.62148608
0.0035577889 	-0.016230427 	0.0017108334 	0.62757778
0.0035778894 	-0.016230427 	0.0017108334 	0.62757778
0.0035979899 	-0.013816582 	0.0053981099 	0.63079186
0.0036180905 	-0.011475405 	0.0086149365 	0.63052244
0.003638191 	-0.0093101955 	0.011396557 	0.6262732
0.0036582915 	-0.0093101955 	0.011396557 	0.6262732
0.003678392 	-0.0074118605 	0.013789499 	0.61758673
0.0036984925 	-0.0058453799 	0.015852058 	0.60405826
0.003718593 	-0.0046379478 	0.0176292 	0.58535447
0.0037386935 	-0.0037708982 	0.019109444 	0.56126015
0.003758794 	-0.0031824917 	0.020188433 	0.53174382
0.0037788945 	-0.0031824917 	0.020188433 	0.53174382
0.003798995 	-0.0027816436 	0.020673916 	0.49700789
0.0038190955 	-0.0024705554 	0.020345906 	0.45747837
0.003839196 	-0.002170066 	0.019053944 	0.41371596
0.0038592965 	-0.0018372893 	0.016808589 	0.36628453
0.003879397 	-0.0014676939 	0.0138125 	0.31565004
0.0038994975 	-0.001083987 	0.010417916 	0.26217119
0.003919598 	-0.00071904059 	0.0070309965 	0.20619048
0.0039396985 	-0.00040381647 	0.0040154836 	0.14818141
0.003959799 	-0.00016421284 	0.0016499742 	0.088886563
0.0039798995 	-2.1382048e-05 	0.000167009 	0.029382224
0.004 	-2.1382048e-05 	0.000167009 	0.029382224
