0 	0.019740111 	0.054881738 	1.0585978
2.0100503e-05 	0.019740111 	0.054881738 	1.0585978
4.0201005e-05 	0.019740111 	0.054881738 	1.0585978
6.0301508e-05 	0.040464365 	0.040926213 	1.0528238
8.040201e-05 	0.040464365 	0.040926213 	1.0528238
0.00010050251 	0.040464365 	0.040926213 	1.0528238
0.00012060302 	0.043491074 	0.036189602 	1.0461045
0.00014070352 	0.043491074 	0.036189602 	1.0461045
0.00016080402 	0.043491074 	0.036189602 	1.0461045
0.00018090452 	0.043619477 	0.033793336 	1.039063
0.00020100503 	0.043619477 	0.033793336 	1.039063
0.00022110553 	0.049449416 	0.023132077 	1.0374451
0.00024120603 	0.046530471 	0.024123667 	1.0314664
0.00026130653 	0.046530471 	0.024123667 	1.0314664
0.00028140704 	0.043468141 	0.023123759 	1.0278549
0.00030150754 	0.043468141 	0.023123759 	1.0278549
0.00032160804 	0.043468141 	0.023123759 	1.0278549
0.00034170854 	0.04006085 	0.020393392 	1.0279308
0.00036180905 	0.04006085 	0.020393392 	1.0279308
0.00038190955 	0.039254206 	0.023864736 	1.0264907
0.00040201005 	0.036484788 	0.018388143 	1.0290911
0.00042211055 	0.036484788 	0.018388143 	1.0290911
0.00044221106 	0.036484788 	0.018388143 	1.0290911
0.00046231156 	0.032963796 	0.012384271 	1.0349076
0.00048241206 	0.032963796 	0.012384271 	1.0349076
0.00050251256 	0.028725107 	0.0065421269 	1.0419767
0.00052261307 	0.028725107 	0.0065421269 	1.0419767
0.00054271357 	0.028725107 	0.0065421269 	1.0419767
0.00056281407 	0.023761012 	0.0014054482 	1.0483193
0.00058291457 	0.023761012 	0.0014054482 	1.0483193
0.00060301508 	0.023761012 	0.0014054482 	1.0483193
0.00062311558 	0.018035719 	-0.0029599891 	1.0526995
0.00064321608 	0.018035719 	-0.0029599891 	1.0526995
0.00066331658 	0.017157831 	-0.00032345101 	1.0553913
0.00068341709 	0.010926521 	-0.0032942363 	1.0569796
0.00070351759 	0.010926521 	-0.0032942363 	1.0569796
0.00072361809 	0.0039819857 	-0.0068184673 	1.0565994
0.00074371859 	0.0039819857 	-0.0068184673 	1.0565994
0.0007638191 	0.0039819857 	-0.0068184673 	1.0565994
0.0007839196 	-0.0027886165 	-0.016761634 	1.0530727
0.0008040201 	-0.0027886165 	-0.016761634 	1.0530727
0.0008241206 	-0.0027886165 	-0.016761634 	1.0530727
0.00084422111 	-0.0099715854 	-0.022874288 	1.0514868
0.00086432161 	-0.0099715854 	-0.022874288 	1.0514868
0.00088442211 	-0.0099715854 	-0.022874288 	1.0514868
0.00090452261 	-0.018247714 	-0.02448324 	1.053595
0.00092462312 	-0.018247714 	-0.02448324 	1.053595
0.00094472362 	-0.023899621 	-0.031832845 	1.0544215
0.00096482412 	-0.023899621 	-0.031832845 	1.0544215
0.00098492462 	-0.023899621 	-0.031832845 	1.0544215
0.0010050251 	-0.027496189 	-0.039276434 	1.0555861
0.0010251256 	-0.023421979 	-0.041049503 	1.0512343
0.0010452261 	-0.023421979 	-0.041049503 	1.0512343
0.0010653266 	-0.022277306 	-0.044639719 	1.0505281
0.0010854271 	-0.022277306 	-0.044639719 	1.0505281
0.0011055276 	-0.022277306 	-0.044639719 	1.0505281
0.0011256281 	-0.017813282 	-0.044874662 	1.0473211
0.0011457286 	-0.017813282 	-0.044874662 	1.0473211
0.0011658291 	-0.017813282 	-0.044874662 	1.0473211
0.0011859296 	-0.010814096 	-0.041184422 	1.0403085
0.0012060302 	-0.010814096 	-0.041184422 	1.0403085
0.0012261307 	-0.010814096 	-0.041184422 	1.0403085
0.0012462312 	-0.0024719536 	-0.033570329 	1.028492
0.0012663317 	-0.0024719536 	-0.033570329 	1.028492
0.0012864322 	-0.0024719536 	-0.033570329 	1.028492
0.0013065327 	0.0053539809 	-0.022115788 	1.0118591
0.0013266332 	0.0053539809 	-0.022115788 	1.0118591
0.0013467337 	0.0053539809 	-0.022115788 	1.0118591
0.0013668342 	0.010146608 	-0.0071675295 	0.99185018
0.0013869347 	0.010146608 	-0.0071675295 	0.99185018
0.0014070352 	0.010146608 	-0.0071675295 	0.99185018
0.0014271357 	0.0093736438 	0.0099355559 	0.97127272
0.0014472362 	0.0093736438 	0.0099355559 	0.97127272
0.0014673367 	0.0093736438 	0.0099355559 	0.97127272
0.0014874372 	0.001351013 	0.026175809 	0.95361469
0.0015075377 	0.001351013 	0.026175809 	0.95361469
0.0015276382 	-0.013482979 	0.037267529 	0.94113103
0.0015477387 	-0.013482979 	0.037267529 	0.94113103
0.0015678392 	-0.013482979 	0.037267529 	0.94113103
0.0015879397 	-0.031789558 	0.038689963 	0.93208028
0.0016080402 	-0.031789558 	0.038689963 	0.93208028
0.0016281407 	-0.031789558 	0.038689963 	0.93208028
0.0016482412 	-0.047004372 	0.028094234 	0.92078476
0.0016683417 	-0.047004372 	0.028094234 	0.92078476
0.0016884422 	-0.054146925 	0.010754691 	0.90583232
0.0017085427 	-0.054146925 	0.010754691 	0.90583232
0.0017286432 	-0.054146925 	0.010754691 	0.90583232
0.0017487437 	-0.055814176 	-0.00091239831 	0.89711684
0.0017688442 	-0.055814176 	-0.00091239831 	0.89711684
0.0017889447 	-0.055814176 	-0.00091239831 	0.89711684
0.0018090452 	-0.056987793 	-0.0021309348 	0.90018796
0.0018291457 	-0.056987793 	-0.0021309348 	0.90018796
0.0018492462 	-0.058639337 	0.00016573126 	0.90804279
0.0018693467 	-0.058639337 	0.00016573126 	0.90804279
0.0018894472 	-0.058639337 	0.00016573126 	0.90804279
0.0019095477 	-0.059948144 	0.0012393984 	0.91543653
0.0019296482 	-0.059948144 	0.0012393984 	0.91543653
0.0019497487 	-0.060968249 	-0.00045276504 	0.92034412
0.0019698492 	-0.060968249 	-0.00045276504 	0.92034412
0.0019899497 	-0.062226287 	-0.0052055972 	0.92154261
0.0020100503 	-0.062226287 	-0.0052055972 	0.92154261
0.0020301508 	-0.062226287 	-0.0052055972 	0.92154261
0.0020502513 	-0.064026251 	-0.01204722 	0.91906852
0.0020703518 	-0.064026251 	-0.01204722 	0.91906852
0.0020904523 	-0.066473523 	-0.020161653 	0.91348225
0.0021105528 	-0.066473523 	-0.020161653 	0.91348225
0.0021306533 	-0.066473523 	-0.020161653 	0.91348225
0.0021507538 	-0.069589115 	-0.029333996 	0.90550973
0.0021708543 	-0.069589115 	-0.029333996 	0.90550973
0.0021909548 	-0.072902895 	-0.039327327 	0.89619018
0.0022110553 	-0.072902895 	-0.039327327 	0.89619018
0.0022311558 	-0.075528256 	-0.049413922 	0.88665241
0.0022512563 	-0.075528256 	-0.049413922 	0.88665241
0.0022713568 	-0.076680649 	-0.058766615 	0.87785483
0.0022914573 	-0.076680649 	-0.058766615 	0.87785483
0.0023115578 	-0.076680649 	-0.058766615 	0.87785483
0.0023316583 	-0.076010361 	-0.066878339 	0.8705683
0.0023517588 	-0.076010361 	-0.066878339 	0.8705683
0.0023718593 	-0.073647052 	-0.073379332 	0.86526048
0.0023919598 	-0.073647052 	-0.073379332 	0.86526048
0.0024120603 	-0.070056228 	-0.077917198 	0.8620538
0.0024321608 	-0.070056228 	-0.077917198 	0.8620538
0.0024522613 	-0.065871497 	-0.080151051 	0.8608597
0.0024723618 	-0.065871497 	-0.080151051 	0.8608597
0.0024924623 	-0.061740447 	-0.079851943 	0.86167964
0.0025125628 	-0.061740447 	-0.079851943 	0.86167964
0.0025326633 	-0.058222082 	-0.07688742 	0.86476718
0.0025527638 	-0.058222082 	-0.07688742 	0.86476718
0.0025728643 	-0.055858759 	-0.071246009 	0.87046774
0.0025929648 	-0.055858759 	-0.071246009 	0.87046774
0.0026130653 	-0.055110076 	-0.063035011 	0.87918969
0.0026331658 	-0.055110076 	-0.063035011 	0.87918969
0.0026532663 	-0.056331955 	-0.052472721 	0.89097257
0.0026733668 	-0.056331955 	-0.052472721 	0.89097257
0.0026934673 	-0.059608673 	-0.039749881 	0.90524931
0.0027135678 	-0.059608673 	-0.039749881 	0.90524931
0.0027336683 	-0.064816981 	-0.024787537 	0.92013444
0.0027537688 	-0.064816981 	-0.024787537 	0.92013444
0.0027738693 	-0.071228996 	-0.0069139321 	0.93182587
0.0027939698 	-0.071228996 	-0.0069139321 	0.93182587
0.0028140704 	-0.077835169 	0.014898751 	0.93491571
0.0028341709 	-0.077835169 	0.014898751 	0.93491571
0.0028542714 	-0.084351923 	0.040970457 	0.92444726
0.0028743719 	-0.090847137 	0.069271443 	0.89923647
0.0028944724 	-0.090847137 	0.069271443 	0.89923647
0.0029145729 	-0.097024942 	0.095541857 	0.86333048
0.0029346734 	-0.097024942 	0.095541857 	0.86333048
0.0029547739 	-0.1017983 	0.11553231 	0.82305094
0.0029748744 	-0.1017983 	0.11553231 	0.82305094
0.0029949749 	-0.10358653 	0.12719577 	0.78296178
0.0030150754 	-0.10141289 	0.13052427 	0.74520341
0.0030351759 	-0.10141289 	0.13052427 	0.74520341
0.0030552764 	-0.09570841 	0.12649043 	0.71101715
0.0030753769 	-0.09570841 	0.12649043 	0.71101715
0.0030954774 	-0.087957335 	0.11678647 	0.68125953
0.0031155779 	-0.079734944 	0.10372919 	0.65585972
0.0031356784 	-0.079734944 	0.10372919 	0.65585972
0.0031557789 	-0.072046287 	0.089549478 	0.63375428
0.0031758794 	-0.072046287 	0.089549478 	0.63375428
0.0031959799 	-0.065233471 	0.075735285 	0.61342508
0.0032160804 	-0.059198557 	0.063011965 	0.59344977
0.0032361809 	-0.059198557 	0.063011965 	0.59344977
0.0032562814 	-0.053694399 	0.051635507 	0.57287343
0.0032763819 	-0.048511025 	0.041652251 	0.55144626
0.0032964824 	-0.048511025 	0.041652251 	0.55144626
0.0033165829 	-0.043592404 	0.033008399 	0.52962974
0.0033366834 	-0.039003512 	0.025625999 	0.50834308
0.0033567839 	-0.039003512 	0.025625999 	0.50834308
0.0033768844 	-0.034847758 	0.019421333 	0.48858662
0.0033969849 	-0.031193675 	0.014325075 	0.47110089
0.0034170854 	-0.031193675 	0.014325075 	0.47110089
0.0034371859 	-0.028040888 	0.010298969 	0.45623658
0.0034572864 	-0.025320518 	0.0073365895 	0.44398767
0.0034773869 	-0.022936982 	0.0054391553 	0.4341071
0.0034974874 	-0.022936982 	0.0054391553 	0.4341071
0.0035175879 	-0.020795177 	0.0045964793 	0.42624987
0.0035376884 	-0.018806756 	0.0047693567 	0.42004482
0.0035577889 	-0.016912307 	0.0058762306 	0.41511736
0.0035778894 	-0.016912307 	0.0058762306 	0.41511736
0.0035979899 	-0.015099108 	0.0077979059 	0.41107699
0.0036180905 	-0.013358646 	0.010375884 	0.40748391
0.003638191 	-0.011694231 	0.013421587 	0.40381432
0.0036582915 	-0.011694231 	0.013421587 	0.40381432
0.003678392 	-0.010130024 	0.016729726 	0.39944477
0.0036984925 	-0.0086865937 	0.020088973 	0.39367202
0.003718593 	-0.0073776956 	0.023294783 	0.38574843
0.0037386935 	-0.0062061339 	0.026161239 	0.37494543
0.003758794 	-0.0051654586 	0.028528887 	0.36062157
0.0037788945 	-0.0051654586 	0.028528887 	0.36062157
0.003798995 	-0.0042414199 	0.03027087 	0.34230206
0.0038190955 	-0.0034162737 	0.031296209 	0.31974619
0.003839196 	-0.0026739904 	0.031547247 	0.29298729
0.0038592965 	-0.0020047463 	0.030993873 	0.26232939
0.003879397 	-0.0014077996 	0.029622192 	0.22828822
0.0038994975 	-0.00089245154 	0.027411953 	0.19147447
0.003919598 	-0.00047613735 	0.024289782 	0.15243527
0.0039396985 	-0.00017922955 	0.020042741 	0.1114947
0.003959799 	-1.2899067e-05 	0.014193585 	0.068662298
0.0039798995 	1.5062106e-05 	0.0059036008 	0.023712878
0.004 	1.5062106e-05 	0.0059036008 	0.023712878
