0 	-0.0079440512 	-0.05315537 	1.0339652
2.0100503e-05 	-0.0079440512 	-0.05315537 	1.0339652
4.0201005e-05 	-0.0079440512 	-0.05315537 	1.0339652
6.0301508e-05 	0.010933626 	-0.055392408 	1.0370995
8.040201e-05 	0.010933626 	-0.055392408 	1.0370995
0.00010050251 	0.010933626 	-0.055392408 	1.0370995
0.00012060302 	0.010441081 	-0.055428802 	1.0426843
0.00014070352 	0.010441081 	-0.055428802 	1.0426843
0.00016080402 	0.010441081 	-0.055428802 	1.0426843
0.00018090452 	0.0049769875 	-0.053410658 	1.0506951
0.00020100503 	0.0049769875 	-0.053410658 	1.0506951
0.00022110553 	0.0049769875 	-0.053410658 	1.0506951
0.00024120603 	-0.0018360599 	-0.048887246 	1.0591034
0.00026130653 	-0.0018360599 	-0.048887246 	1.0591034
0.00028140704 	-0.0079862995 	-0.042413673 	1.0648221
0.00030150754 	-0.0079862995 	-0.042413673 	1.0648221
0.00032160804 	-0.0079862995 	-0.042413673 	1.0648221
0.00034170854 	-0.012652778 	-0.034951459 	1.0663004
0.00036180905 	-0.012652778 	-0.034951459 	1.0663004
0.00038190955 	-0.012652778 	-0.034951459 	1.0663004
0.00040201005 	-0.015978933 	-0.02744728 	1.0648
0.00042211055 	-0.015978933 	-0.02744728 	1.0648
0.00044221106 	-0.015978933 	-0.02744728 	1.0648
0.00046231156 	-0.018529982 	-0.020726611 	1.0629663
0.00048241206 	-0.018529982 	-0.020726611 	1.0629663
0.00050251256 	-0.02089018 	-0.015530403 	1.0627028
0.00052261307 	-0.02089018 	-0.015530403 	1.0627028
0.00054271357 	-0.02089018 	-0.015530403 	1.0627028
0.00056281407 	-0.023530347 	-0.012393434 	1.0642815
0.00058291457 	-0.023530347 	-0.012393434 	1.0642815
0.00060301508 	-0.023530347 	-0.012393434 	1.0642815
0.00062311558 	-0.028397598 	-0.013615564 	1.0613215
0.00064321608 	-0.028397598 	-0.013615564 	1.0613215
0.00066331658 	-0.028397598 	-0.013615564 	1.0613215
0.00068341709 	-0.032363296 	-0.01568859 	1.065282
0.00070351759 	-0.031034474 	-0.012048419 	1.06913
0.00072361809 	-0.036366925 	-0.013357738 	1.070767
0.00074371859 	-0.036366925 	-0.013357738 	1.070767
0.0007638191 	-0.036366925 	-0.013357738 	1.070767
0.0007839196 	-0.042811368 	-0.014120862 	1.0718335
0.0008040201 	-0.042811368 	-0.014120862 	1.0718335
0.0008241206 	-0.042811368 	-0.014120862 	1.0718335
0.00084422111 	-0.050088125 	-0.013438839 	1.0725174
0.00086432161 	-0.050088125 	-0.013438839 	1.0725174
0.00088442211 	-0.051270036 	-0.022624054 	1.0713177
0.00090452261 	-0.057624183 	-0.011227593 	1.0718529
0.00092462312 	-0.057624183 	-0.011227593 	1.0718529
0.00094472362 	-0.06458267 	-0.008323993 	1.0668779
0.00096482412 	-0.06458267 	-0.008323993 	1.0668779
0.00098492462 	-0.066220621 	-0.021456427 	1.0636562
0.0010050251 	-0.072215604 	-0.020667664 	1.0476226
0.0010251256 	-0.072215604 	-0.020667664 	1.0476226
0.0010452261 	-0.072215604 	-0.020667664 	1.0476226
0.0010653266 	-0.075882366 	-0.019844447 	1.0202088
0.0010854271 	-0.07409483 	-0.0025992888 	1.0276524
0.0011055276 	-0.07409483 	-0.0025992888 	1.0276524
0.0011256281 	-0.075915738 	0.0010431472 	0.99703233
0.0011457286 	-0.077597217 	-0.017152679 	0.98959887
0.0011658291 	-0.077597217 	-0.017152679 	0.98959887
0.0011859296 	-0.078757796 	-0.01116175 	0.96629387
0.0012060302 	-0.078757796 	-0.01116175 	0.96629387
0.0012261307 	-0.078757796 	-0.01116175 	0.96629387
0.0012462312 	-0.080138311 	-0.002703717 	0.95384487
0.0012663317 	-0.080138311 	-0.002703717 	0.95384487
0.0012864322 	-0.080138311 	-0.002703717 	0.95384487
0.0013065327 	-0.081614285 	0.0071302354 	0.94887545
0.0013266332 	-0.081614285 	0.0071302354 	0.94887545
0.0013467337 	-0.081614285 	0.0071302354 	0.94887545
0.0013668342 	-0.083099396 	0.01883397 	0.94776372
0.0013869347 	-0.083099396 	0.01883397 	0.94776372
0.0014070352 	-0.083099396 	0.01883397 	0.94776372
0.0014271357 	-0.085117318 	0.033263778 	0.94877289
0.0014472362 	-0.085117318 	0.033263778 	0.94877289
0.0014673367 	-0.085117318 	0.033263778 	0.94877289
0.0014874372 	-0.08818806 	0.050444369 	0.94902896
0.0015075377 	-0.08818806 	0.050444369 	0.94902896
0.0015276382 	-0.092107247 	0.069383103 	0.94380445
0.0015477387 	-0.092107247 	0.069383103 	0.94380445
0.0015678392 	-0.092107247 	0.069383103 	0.94380445
0.0015879397 	-0.095962751 	0.087417409 	0.93000989
0.0016080402 	-0.095962751 	0.087417409 	0.93000989
0.0016281407 	-0.095962751 	0.087417409 	0.93000989
0.0016482412 	-0.098753028 	0.10010421 	0.90859301
0.0016683417 	-0.098753028 	0.10010421 	0.90859301
0.0016884422 	-0.10018121 	0.10397016 	0.88294953
0.0017085427 	-0.10018121 	0.10397016 	0.88294953
0.0017286432 	-0.10018121 	0.10397016 	0.88294953
0.0017487437 	-0.10079099 	0.10010757 	0.85677319
0.0017688442 	-0.10079099 	0.10010757 	0.85677319
0.0017889447 	-0.10079099 	0.10010757 	0.85677319
0.0018090452 	-0.10137767 	0.092852441 	0.83464765
0.0018291457 	-0.10137767 	0.092852441 	0.83464765
0.0018492462 	-0.102348 	0.085309414 	0.82116829
0.0018693467 	-0.102348 	0.085309414 	0.82116829
0.0018894472 	-0.102348 	0.085309414 	0.82116829
0.0019095477 	-0.10354984 	0.078271605 	0.8173167
0.0019296482 	-0.10354984 	0.078271605 	0.8173167
0.0019497487 	-0.10426548 	0.071910885 	0.81976432
0.0019698492 	-0.10426548 	0.071910885 	0.81976432
0.0019899497 	-0.10332132 	0.066504707 	0.8241352
0.0020100503 	-0.10332132 	0.066504707 	0.8241352
0.0020301508 	-0.10332132 	0.066504707 	0.8241352
0.0020502513 	-0.099590582 	0.061835559 	0.82777159
0.0020703518 	-0.099590582 	0.061835559 	0.82777159
0.0020904523 	-0.092795265 	0.057091469 	0.82978929
0.0021105528 	-0.092795265 	0.057091469 	0.82978929
0.0021306533 	-0.092795265 	0.057091469 	0.82978929
0.0021507538 	-0.083845263 	0.051757083 	0.83015193
0.0021708543 	-0.083845263 	0.051757083 	0.83015193
0.0021909548 	-0.074166757 	0.045773601 	0.82936201
0.0022110553 	-0.074166757 	0.045773601 	0.82936201
0.0022311558 	-0.064827887 	0.039188756 	0.82853344
0.0022512563 	-0.064827887 	0.039188756 	0.82853344
0.0022713568 	-0.056357677 	0.03200918 	0.8288417
0.0022914573 	-0.056357677 	0.03200918 	0.8288417
0.0023115578 	-0.056357677 	0.03200918 	0.8288417
0.0023316583 	-0.048922146 	0.024286103 	0.83091435
0.0023517588 	-0.048922146 	0.024286103 	0.83091435
0.0023718593 	-0.042475859 	0.016107319 	0.83486378
0.0023919598 	-0.042475859 	0.016107319 	0.83486378
0.0024120603 	-0.036978372 	0.0075900271 	0.84041598
0.0024321608 	-0.036978372 	0.0075900271 	0.84041598
0.0024522613 	-0.032281796 	-0.0010849083 	0.84712116
0.0024723618 	-0.032281796 	-0.0010849083 	0.84712116
0.0024924623 	-0.02822954 	-0.0096568251 	0.85451937
0.0025125628 	-0.02822954 	-0.0096568251 	0.85451937
0.0025326633 	-0.024718741 	-0.017873119 	0.86223471
0.0025527638 	-0.024718741 	-0.017873119 	0.86223471
0.0025728643 	-0.021582074 	-0.025531538 	0.86998771
0.0025929648 	-0.021582074 	-0.025531538 	0.86998771
0.0026130653 	-0.018679568 	-0.032499703 	0.87756123
0.0026331658 	-0.018679568 	-0.032499703 	0.87756123
0.0026532663 	-0.015875588 	-0.038689183 	0.88485169
0.0026733668 	-0.015875588 	-0.038689183 	0.88485169
0.0026934673 	-0.012964386 	-0.044047154 	0.89172387
0.0027135678 	-0.012964386 	-0.044047154 	0.89172387
0.0027336683 	-0.0098018884 	-0.048496825 	0.89794622
0.0027537688 	-0.0098018884 	-0.048496825 	0.89794622
0.0027738693 	-0.0062632256 	-0.051850849 	0.90325162
0.0027939698 	-0.0062632256 	-0.051850849 	0.90325162
0.0028140704 	-0.0023305246 	-0.053815317 	0.90722574
0.0028341709 	-0.0023305246 	-0.053815317 	0.90722574
0.0028542714 	0.0019230804 	-0.054067091 	0.90950014
0.0028743719 	0.0064049227 	-0.052342647 	0.90984241
0.0028944724 	0.0064049227 	-0.052342647 	0.90984241
0.0029145729 	0.010937738 	-0.048519178 	0.9081148
0.0029346734 	0.010937738 	-0.048519178 	0.9081148
0.0029547739 	0.015391726 	-0.042699917 	0.90429385
0.0029748744 	0.015391726 	-0.042699917 	0.90429385
0.0029949749 	0.019770726 	-0.03519359 	0.89835821
0.0030150754 	0.024093804 	-0.026469013 	0.89037744
0.0030351759 	0.024093804 	-0.026469013 	0.89037744
0.0030552764 	0.028329978 	-0.017088576 	0.88047348
0.0030753769 	0.028329978 	-0.017088576 	0.88047348
0.0030954774 	0.032414636 	-0.0077127603 	0.86892193
0.0031155779 	0.036242248 	0.0010518283 	0.85615794
0.0031356784 	0.036242248 	0.0010518283 	0.85615794
0.0031557789 	0.03971959 	0.0086717681 	0.84271031
0.0031758794 	0.03971959 	0.0086717681 	0.84271031
0.0031959799 	0.042796452 	0.014763019 	0.82911068
0.0032160804 	0.045441356 	0.019134373 	0.81588291
0.0032361809 	0.045441356 	0.019134373 	0.81588291
0.0032562814 	0.047638974 	0.021777404 	0.80342184
0.0032763819 	0.049346466 	0.022798312 	0.79196298
0.0032964824 	0.049346466 	0.022798312 	0.79196298
0.0033165829 	0.050492502 	0.022337623 	0.78159366
0.0033366834 	0.050992211 	0.020506799 	0.77227793
0.0033567839 	0.050992211 	0.020506799 	0.77227793
0.0033768844 	0.050733896 	0.017375735 	0.76390717
0.0033969849 	0.049575937 	0.013057546 	0.75634535
0.0034170854 	0.049575937 	0.013057546 	0.75634535
0.0034371859 	0.047335202 	0.007877843 	0.74938851
0.0034572864 	0.043879563 	0.002455739 	0.74271169
0.0034773869 	0.039347804 	-0.002335928 	0.73606153
0.0034974874 	0.039347804 	-0.002335928 	0.73606153
0.0035175879 	0.034166048 	-0.0056270786 	0.7296566
0.0035376884 	0.028782153 	-0.0067756367 	0.72453177
0.0035577889 	0.023486424 	-0.005407558 	0.72213844
0.0035778894 	0.023486424 	-0.005407558 	0.72213844
0.0035979899 	0.018464568 	-0.0015286882 	0.72333061
0.0036180905 	0.01388261 	0.0042670938 	0.72747073
0.003638191 	0.0098857158 	0.010778689 	0.73248506
0.0036582915 	0.0098857158 	0.010778689 	0.73248506
0.003678392 	0.0066999796 	0.016570296 	0.73562419
0.0036984925 	0.0045977787 	0.020511923 	0.73432692
0.003718593 	0.0037177783 	0.022173391 	0.72672042
0.0037386935 	0.0039414328 	0.02189834 	0.71154094
0.003758794 	0.0048529264 	0.020344055 	0.68759613
0.0037788945 	0.0048529264 	0.020344055 	0.68759613
0.003798995 	0.0057958438 	0.017723402 	0.65343647
0.0038190955 	0.0061347524 	0.013907123 	0.60775172
0.003839196 	0.0055759454 	0.0098517728 	0.55000972
0.0038592965 	0.0043309345 	0.008089433 	0.48109071
0.003879397 	0.0029465762 	0.010333321 	0.40389053
0.0038994975 	0.0018254018 	0.015139715 	0.32313164
0.003919598 	0.0010571244 	0.018915856 	0.24373492
0.0039396985 	0.00056273122 	0.018776144 	0.16889681
0.003959799 	0.00024861996 	0.014019983 	0.09927332
0.0039798995 	5.797775e-05 	0.0055749119 	0.033203168
0.004 	5.797775e-05 	0.0055749119 	0.033203168
