0 	-0.001265488 	-0.014149991 	1.0762992
5.5555556e-05 	-0.016072804 	0.011408887 	1.0563732
0.00011111111 	-0.015502295 	0.015920612 	1.0459707
0.00016666667 	-0.015109225 	0.019416743 	1.03666
0.00022222222 	-0.014876476 	0.022404857 	1.0293181
0.00027777778 	-0.014864375 	0.024998916 	1.024362
0.00033333333 	-0.015053378 	0.027190137 	1.0216322
0.00038888889 	-0.015387485 	0.028850918 	1.0204719
0.00044444444 	-0.015859799 	0.029750499 	1.0199417
0.0005 	-0.016552114 	0.029583153 	1.0190918
0.00055555556 	-0.017591211 	0.028033687 	1.0172428
0.00061111111 	-0.019038137 	0.024932437 	1.0141951
0.00066666667 	-0.020785779 	0.020460734 	1.0102378
0.00072222222 	-0.022553396 	0.015240814 	1.00593
0.00077777778 	-0.023993448 	0.010199078 	1.0018348
0.00083333333 	-0.024824001 	0.0062621842 	0.99838429
0.00088888889 	-0.024935967 	0.0040586187 	0.99583982
0.00094444444 	-0.024406938 	0.0037648151 	0.99418288
0.001 	-0.023412804 	0.0051632593 	0.99286124
0.0010617224 	-0.022170761 	0.007898769 	0.9908365
0.0011225923 	-0.020955063 	0.010841044 	0.98654353
0.0011826215 	-0.020005616 	0.013119532 	0.97860589
0.0012418217 	-0.019487297 	0.014092508 	0.96620172
0.0013002041 	-0.019560854 	0.013496629 	0.94919999
0.0013577803 	-0.020425333 	0.011501652 	0.92829529
0.0014145612 	-0.022277082 	0.0087650015 	0.90512667
0.0014705579 	-0.02518152 	0.0063220031 	0.88218568
0.0015257812 	-0.028964486 	0.0053709789 	0.86228246
0.0015802418 	-0.03307123 	0.0068513512 	0.84772486
0.0016339502 	-0.03660703 	0.011154372 	0.83962609
0.0016869168 	-0.038696336 	0.017998853 	0.83770552
0.0017391518 	-0.038792844 	0.026531221 	0.84061599
0.0017906654 	-0.036783415 	0.035636902 	0.84653582
0.0018414676 	-0.032944924 	0.044280065 	0.8537249
0.0018915681 	-0.027823123 	0.051732512 	0.86089259
0.0019409766 	-0.022092151 	0.057627737 	0.86731018
0.0019897027 	-0.016420067 	0.061917633 	0.87271711
0.0020377558 	-0.011383212 	0.064783156 	0.87712301
0.0020851453 	-0.0073980611 	0.066548087 	0.88062656
0.0021318802 	-0.0047072763 	0.067618547 	0.88329784
0.0021779697 	-0.0034019811 	0.06845211 	0.88509782
0.0022234225 	-0.0034402135 	0.069485496 	0.88582944
0.0022682477 	-0.0046773252 	0.071070614 	0.88511927
0.0023124537 	-0.006859098 	0.0733734 	0.88249906
0.0023560491 	-0.0096454263 	0.076258039 	0.87763339
0.0023990425 	-0.012667295 	0.079241639 	0.87061109
0.002441442 	-0.015573392 	0.081544698 	0.86206506
0.002483256 	-0.018053321 	0.08230377 	0.85287184
0.0025244924 	-0.019856642 	0.080906993 	0.84347941
0.0025651593 	-0.020787276 	0.077250154 	0.83347395
0.0026052645 	-0.020795762 	0.071609984 	0.82222574
0.0026448158 	-0.02007989 	0.064084204 	0.8104415
0.0026838209 	-0.018993084 	0.054248402 	0.80071513
0.0027222872 	-0.017793724 	0.041692952 	0.79549483
0.0027602223 	-0.016358487 	0.027209826 	0.79382646
0.0027976334 	-0.014146308 	0.013410322 	0.78997814
0.0028345278 	-0.010603105 	0.0036552733 	0.77587273
0.0028709126 	-0.005953128 	-0.0003809372 	0.74667801
0.002906795 	-0.0013139343 	-0.0006052029 	0.70582423
0.0029421817 	0.0014848966 	-0.0011728963 	0.66374165
0.0029770797 	0.0011480847 	-0.0054356848 	0.63080179
0.0030114957 	-0.0019193076 	-0.013925117 	0.61071882
0.0030454363 	-0.0063954485 	-0.024924809 	0.60042971
0.0030789082 	-0.010948984 	-0.036222181 	0.5943744
0.0031119178 	-0.01477371 	-0.046198475 	0.58825145
0.0031444715 	-0.017647645 	-0.054048294 	0.58030695
0.0031765755 	-0.019696365 	-0.0594949 	0.57083071
0.0032082362 	-0.021151699 	-0.062578031 	0.56115272
0.0032394596 	-0.022206425 	-0.063515097 	0.55282269
0.0032702517 	-0.023000834 	-0.062653557 	0.54709822
0.0033006186 	-0.023645328 	-0.060401583 	0.54472995
0.003330566 	-0.024219857 	-0.057151763 	0.54593786
0.0033600998 	-0.02476763 	-0.05322711 	0.55047519
0.0033892257 	-0.025291421 	-0.048845962 	0.55773712
0.0034179494 	-0.025757139 	-0.04411931 	0.56688996
0.0034462763 	-0.026102762 	-0.039079726 	0.57699676
0.003474212 	-0.026251211 	-0.03372923 	0.58711557
0.0035017619 	-0.026125783 	-0.02808487 	0.59636124
0.0035289312 	-0.02565943 	-0.022207391 	0.60393422
0.0035557253 	-0.024817694 	-0.016212329 	0.60912289
0.0035821494 	-0.02359779 	-0.010272982 	0.6112754
0.0036082084 	-0.022066171 	-0.0045643398 	0.60991275
0.0036339076 	-0.020289242 	0.00070530576 	0.60461806
0.0036592518 	-0.018298077 	0.0053275687 	0.59502982
0.003684246 	-0.016178555 	0.0091320221 	0.58086768
0.003708895 	-0.014031025 	0.012017345 	0.56191143
0.0037332035 	-0.011938192 	0.013976959 	0.53808984
0.0037571763 	-0.0099803025 	0.015091833 	0.50943854
0.003780818 	-0.0082167452 	0.015488384 	0.47608767
0.0038041332 	-0.0066719269 	0.015278806 	0.43826896
0.0038271264 	-0.0053359357 	0.014521354 	0.39632983
0.0038498019 	-0.004177598 	0.013229653 	0.35072743
0.0038721643 	-0.0031623495 	0.011425623 	0.30198668
0.0038942179 	-0.0022659342 	0.0091994465 	0.2506403
0.0039159668 	-0.0014816466 	0.0067382971 	0.19719027
0.0039374154 	-0.00082211611 	0.0043075086 	0.14211119
0.0039585677 	-0.0003197863 	0.0021882132 	0.085870886
0.0039794279 	-3.2746538e-05 	0.0005760966 	0.028902434
0.004 	-3.2746538e-05 	0.0005760966 	0.028902434
