0 	0.028177956 	-0.0013974134 	1.0818106
5.5555556e-05 	0.028014299 	0.011677366 	1.0817921
0.00011111111 	0.029065451 	0.015090101 	1.0823004
0.00016666667 	0.031235222 	0.016192525 	1.0830338
0.00022222222 	0.033855035 	0.016062616 	1.0838583
0.00027777778 	0.036540072 	0.01502698 	1.084787
0.00033333333 	0.039072475 	0.013276932 	1.0859126
0.00038888889 	0.041366552 	0.010966006 	1.0873106
0.00044444444 	0.043452081 	0.0081952148 	1.0889453
0.0005 	0.045454632 	0.0049720909 	1.0905827
0.00055555556 	0.047562473 	0.001158396 	1.0917261
0.00061111111 	0.049944543 	-0.0035765402 	1.0915902
0.00066666667 	0.052619069 	-0.0097457017 	1.0891587
0.00072222222 	0.055334969 	-0.017814531 	1.0834328
0.00077777778 	0.057617975 	-0.027777887 	1.0738118
0.00083333333 	0.058969583 	-0.038879655 	1.0603374
0.00088888889 	0.059127542 	-0.049736191 	1.0435626
0.00094444444 	0.05801723 	-0.059122344 	1.0247199
0.001 	0.055785895 	-0.066014936 	1.0034988
0.0010617199 	0.052311148 	-0.069547482 	0.98212127
0.0011225874 	0.048350667 	-0.069468827 	0.96273657
0.0011826143 	0.043979986 	-0.066005002 	0.9457517
0.0012418122 	0.039311141 	-0.059463226 	0.93155565
0.0013001926 	0.034628369 	-0.050401903 	0.9203234
0.0013577668 	0.030300071 	-0.039781527 	0.91171524
0.0014145458 	0.026580749 	-0.02889812 	0.90511689
0.0014705407 	0.023518484 	-0.018991754 	0.90012246
0.0015257623 	0.021017381 	-0.010757114 	0.89666732
0.0015802213 	0.018925384 	-0.0040566431 	0.89479828
0.0016339282 	0.017068592 	0.0017964509 	0.89443345
0.0016868934 	0.0152466 	0.0074976412 	0.89537525
0.0017391271 	0.01329367 	0.01342154 	0.89738472
0.0017906395 	0.0111568 	0.01959767 	0.90020879
0.0018414404 	0.0089590982 	0.025846997 	0.90353392
0.0018915398 	0.0069781545 	0.031849448 	0.90699667
0.0019409473 	0.0055862246 	0.03713979 	0.91022069
0.0019896725 	0.0051770343 	0.041081846 	0.91286507
0.0020377248 	0.0060820404 	0.042960298 	0.91462069
0.0020851134 	0.0084961781 	0.042154009 	0.91520993
0.0021318476 	0.012451208 	0.038313042 	0.9144087
0.0021779364 	0.017832555 	0.031462312 	0.91208247
0.0022233887 	0.024387508 	0.022036069 	0.90817941
0.0022682133 	0.031706694 	0.010857398 	0.90269348
0.0023124189 	0.039242017 	-0.00091952402 	0.89566994
0.0023560139 	0.046363909 	-0.011973649 	0.88729749
0.0023990069 	0.052420164 	-0.021129215 	0.87810088
0.0024414062 	0.056866713 	-0.02758032 	0.86893672
0.0024832199 	0.059358755 	-0.03096259 	0.86057657
0.0025244562 	0.0598436 	-0.031111522 	0.85333061
0.002565123 	0.058539676 	-0.027995562 	0.84718419
0.0026052281 	0.055749518 	-0.021714521 	0.84226396
0.0026447794 	0.051773496 	-0.012613388 	0.8389918
0.0026837845 	0.046896402 	-0.001495185 	0.83760427
0.0027222509 	0.041358491 	0.010297728 	0.83762021
0.0027601861 	0.035476053 	0.02121147 	0.83787995
0.0027975974 	0.029695377 	0.030006759 	0.83705019
0.002834492 	0.024435206 	0.036121249 	0.83425736
0.0028708772 	0.019999578 	0.039611672 	0.8293307
0.0029067598 	0.016483987 	0.040900952 	0.82270761
0.0029421469 	0.013806338 	0.040564091 	0.81517635
0.0029770452 	0.011823346 	0.039223956 	0.80761814
0.0030114616 	0.010454149 	0.037473696 	0.80080369
0.0030454028 	0.0097228916 	0.035826012 	0.79523833
0.0030788752 	0.0097282861 	0.034670301 	0.791086
0.0031118853 	0.010575587 	0.034228574 	0.78818768
0.0031444395 	0.012303476 	0.034538933 	0.78616121
0.0031765442 	0.014853482 	0.035483252 	0.78453152
0.0032082055 	0.018077734 	0.036842482 	0.78284147
0.0032394295 	0.021770056 	0.038361171 	0.78072037
0.0032702223 	0.025703165 	0.039799906 	0.77791301
0.0033005899 	0.029658202 	0.040965516 	0.77428217
0.0033305381 	0.033442415 	0.041722009 	0.7697981
0.0033600727 	0.036896586 	0.041988331 	0.76452384
0.0033891994 	0.039897311 	0.041728534 	0.7585983
0.0034179239 	0.042357649 	0.040937228 	0.75221671
0.0034462517 	0.044227746 	0.039624367 	0.7456082
0.0034741882 	0.045488987 	0.03780661 	0.73901079
0.003501739 	0.046143637 	0.035505519 	0.73264953
0.0035289093 	0.046206244 	0.03275139 	0.72672229
0.0035557043 	0.045696971 	0.029586982 	0.72139224
0.0035821293 	0.044637355 	0.026068531 	0.71677483
0.0036081894 	0.043047308 	0.022268329 	0.71289847
0.0036338895 	0.040945014 	0.0182889 	0.70961553
0.0036592348 	0.03835264 	0.014290172 	0.70645425
0.00368423 	0.035310578 	0.010506944 	0.70244529
0.00370888 	0.03189703 	0.0072192755 	0.69602005
0.0037331896 	0.02823592 	0.0046536046 	0.68511481
0.0037571635 	0.024478799 	0.0028598785 	0.66754526
0.0037808063 	0.020787149 	0.0016424892 	0.64152723
0.0038041226 	0.017302183 	0.00064801351 	0.60602552
0.0038271169 	0.014109476 	-0.00044427243 	0.56073062
0.0038497936 	0.011224757 	-0.0017471538 	0.50582333
0.0038721572 	0.0085997155 	-0.0031204385 	0.44185528
0.0038942119 	0.0061865957 	-0.0042671797 	0.36984574
0.003915962 	0.004010048 	-0.0048741848 	0.29144633
0.0039374118 	0.0021719561 	-0.0047028001 	0.20891539
0.0039585653 	0.00081477141 	-0.003631371 	0.12473158
0.0039794267 	8.0649704e-05 	-0.0016078623 	0.041059133
0.004 	6.4608336e-05 	-0.0056395769 	0.036709412
