0 	0.037667791 	0.036076874 	1.0103382
2.0100503e-05 	0.037667791 	0.036076874 	1.0103382
4.0201005e-05 	0.037667791 	0.036076874 	1.0103382
6.0301508e-05 	0.04871005 	0.014085905 	1.0084358
8.040201e-05 	0.04871005 	0.014085905 	1.0084358
0.00010050251 	0.04871005 	0.014085905 	1.0084358
0.00012060302 	0.047388549 	0.0065543322 	1.0069358
0.00014070352 	0.047388549 	0.0065543322 	1.0069358
0.00016080402 	0.047388549 	0.0065543322 	1.0069358
0.00018090452 	0.043177913 	0.0027463564 	1.0062282
0.00020100503 	0.043177913 	0.0027463564 	1.0062282
0.00022110553 	0.043177913 	0.0027463564 	1.0062282
0.00024120603 	0.036922318 	0.00068084534 	1.0063488
0.00026130653 	0.02938743 	-0.0028882187 	1.0083018
0.00028140704 	0.020988887 	-0.00086635 	1.0084489
0.00030150754 	0.020988887 	-0.00086635 	1.0084489
0.00032160804 	0.020988887 	-0.00086635 	1.0084489
0.00034170854 	0.020904158 	-0.0016474129 	1.006989
0.00036180905 	0.020904158 	-0.0016474129 	1.006989
0.00038190955 	0.020904158 	-0.0016474129 	1.006989
0.00040201005 	0.012876856 	-0.0039209886 	1.0061717
0.00042211055 	0.012876856 	-0.0039209886 	1.0061717
0.00044221106 	0.012876856 	-0.0039209886 	1.0061717
0.00046231156 	0.0061673671 	-0.0079930448 	1.0044485
0.00048241206 	0.0061673671 	-0.0079930448 	1.0044485
0.00050251256 	0.0016709424 	-0.013751444 	1.0023071
0.00052261307 	0.0016709424 	-0.013751444 	1.0023071
0.00054271357 	0.0016709424 	-0.013751444 	1.0023071
0.00056281407 	-0.00053974443 	-0.020394141 	1.0001245
0.00058291457 	-0.00053974443 	-0.020394141 	1.0001245
0.00060301508 	-0.00053974443 	-0.020394141 	1.0001245
0.00062311558 	-0.0011277562 	-0.027183297 	0.99812923
0.00064321608 	-0.0011277562 	-0.027183297 	0.99812923
0.00066331658 	-0.0011277562 	-0.027183297 	0.99812923
0.00068341709 	-0.00092395533 	-0.033875051 	0.99663395
0.00070351759 	-0.00092395533 	-0.033875051 	0.99663395
0.00072361809 	-0.00070827018 	-0.040444359 	0.99576609
0.00074371859 	-0.00070827018 	-0.040444359 	0.99576609
0.0007638191 	-0.006139465 	-0.042445691 	0.99723688
0.0007839196 	-0.0073031556 	-0.047966091 	0.99722024
0.0008040201 	-0.0073031556 	-0.047966091 	0.99722024
0.0008241206 	-0.0073031556 	-0.047966091 	0.99722024
0.00084422111 	-0.0088904156 	-0.052428626 	0.99738555
0.00086432161 	-0.0088904156 	-0.052428626 	0.99738555
0.00088442211 	-0.0088904156 	-0.052428626 	0.99738555
0.00090452261 	-0.0040938143 	-0.054404204 	0.99539465
0.00092462312 	-0.0040938143 	-0.054404204 	0.99539465
0.00094472362 	-0.0065358134 	-0.056433794 	0.99638916
0.00096482412 	-0.0065358134 	-0.056433794 	0.99638916
0.00098492462 	-0.0065358134 	-0.056433794 	0.99638916
0.0010050251 	-0.0094172114 	-0.058395911 	0.99887367
0.0010251256 	-0.0094172114 	-0.058395911 	0.99887367
0.0010452261 	-0.0094172114 	-0.058395911 	0.99887367
0.0010653266 	-0.012295893 	-0.061521587 	1.0033681
0.0010854271 	-0.012295893 	-0.061521587 	1.0033681
0.0011055276 	-0.012295893 	-0.061521587 	1.0033681
0.0011256281 	-0.014423051 	-0.06585151 	1.0088205
0.0011457286 	-0.014423051 	-0.06585151 	1.0088205
0.0011658291 	-0.014423051 	-0.06585151 	1.0088205
0.0011859296 	-0.015448393 	-0.070712934 	1.0127607
0.0012060302 	-0.015448393 	-0.070712934 	1.0127607
0.0012261307 	-0.015448393 	-0.070712934 	1.0127607
0.0012462312 	-0.015351336 	-0.075250837 	1.0125213
0.0012663317 	-0.015351336 	-0.075250837 	1.0125213
0.0012864322 	-0.015351336 	-0.075250837 	1.0125213
0.0013065327 	-0.014329115 	-0.079282777 	1.0069652
0.0013266332 	-0.014329115 	-0.079282777 	1.0069652
0.0013467337 	-0.014329115 	-0.079282777 	1.0069652
0.0013668342 	-0.012904024 	-0.082912912 	0.99694418
0.0013869347 	-0.012904024 	-0.082912912 	0.99694418
0.0014070352 	-0.012904024 	-0.082912912 	0.99694418
0.0014271357 	-0.011534859 	-0.085893772 	0.98449841
0.0014472362 	-0.011534859 	-0.085893772 	0.98449841
0.0014673367 	-0.011534859 	-0.085893772 	0.98449841
0.0014874372 	-0.010337419 	-0.087779396 	0.97246688
0.0015075377 	-0.010337419 	-0.087779396 	0.97246688
0.0015276382 	-0.0091457147 	-0.087446153 	0.96373011
0.0015477387 	-0.0091457147 	-0.087446153 	0.96373011
0.0015678392 	-0.0091457147 	-0.087446153 	0.96373011
0.0015879397 	-0.0081720206 	-0.081997279 	0.95936879
0.0016080402 	-0.0081720206 	-0.081997279 	0.95936879
0.0016281407 	-0.0081720206 	-0.081997279 	0.95936879
0.0016482412 	-0.0090886614 	-0.068105581 	0.95831973
0.0016683417 	-0.0090886614 	-0.068105581 	0.95831973
0.0016884422 	-0.012657151 	-0.046055918 	0.96013229
0.0017085427 	-0.012657151 	-0.046055918 	0.96013229
0.0017286432 	-0.012657151 	-0.046055918 	0.96013229
0.0017487437 	-0.017661586 	-0.021128018 	0.96531704
0.0017688442 	-0.017661586 	-0.021128018 	0.96531704
0.0017889447 	-0.017661586 	-0.021128018 	0.96531704
0.0018090452 	-0.022498344 	-0.00013974901 	0.97275522
0.0018291457 	-0.022498344 	-0.00013974901 	0.97275522
0.0018492462 	-0.02569799 	0.012665577 	0.97971482
0.0018693467 	-0.02569799 	0.012665577 	0.97971482
0.0018894472 	-0.02569799 	0.012665577 	0.97971482
0.0019095477 	-0.026453709 	0.017337082 	0.98451839
0.0019296482 	-0.026453709 	0.017337082 	0.98451839
0.0019497487 	-0.024412396 	0.017085449 	0.98772054
0.0019698492 	-0.024412396 	0.017085449 	0.98772054
0.0019899497 	-0.020087168 	0.015792463 	0.99043409
0.0020100503 	-0.020087168 	0.015792463 	0.99043409
0.0020301508 	-0.020087168 	0.015792463 	0.99043409
0.0020502513 	-0.014573 	0.016367849 	0.99278102
0.0020703518 	-0.014573 	0.016367849 	0.99278102
0.0020904523 	-0.0090720182 	0.020286541 	0.99438811
0.0021105528 	-0.0090720182 	0.020286541 	0.99438811
0.0021306533 	-0.0090720182 	0.020286541 	0.99438811
0.0021507538 	-0.0044880354 	0.027294683 	0.99574349
0.0021708543 	-0.0044880354 	0.027294683 	0.99574349
0.0021909548 	-0.0013591929 	0.03567302 	0.99834409
0.0022110553 	-0.0013591929 	0.03567302 	0.99834409
0.0022311558 	0.00033857843 	0.043201815 	1.0031004
0.0022512563 	0.00033857843 	0.043201815 	1.0031004
0.0022713568 	0.0010415092 	0.048271984 	1.0090781
0.0022914573 	0.0010415092 	0.048271984 	1.0090781
0.0023115578 	0.0010415092 	0.048271984 	1.0090781
0.0023316583 	0.0010749033 	0.050674913 	1.0135401
0.0023517588 	0.0010749033 	0.050674913 	1.0135401
0.0023718593 	0.00078503726 	0.052136837 	1.0127336
0.0023919598 	0.00078503726 	0.052136837 	1.0127336
0.0024120603 	0.00056776837 	0.056028055 	1.0027307
0.0024321608 	0.00056776837 	0.056028055 	1.0027307
0.0024522613 	0.00090996054 	0.065650563 	0.98072011
0.0024723618 	0.00090996054 	0.065650563 	0.98072011
0.0024924623 	0.0023370532 	0.082016372 	0.94686447
0.0025125628 	0.0023370532 	0.082016372 	0.94686447
0.0025326633 	0.0050837721 	0.10276343 	0.9055128
0.0025527638 	0.0050837721 	0.10276343 	0.9055128
0.0025728643 	0.0086887835 	0.12302033 	0.86417878
0.0025929648 	0.0086887835 	0.12302033 	0.86417878
0.0026130653 	0.01223705 	0.13773637 	0.83015859
0.0026331658 	0.01223705 	0.13773637 	0.83015859
0.0026532663 	0.0148841 	0.14419302 	0.80723318
0.0026733668 	0.0148841 	0.14419302 	0.80723318
0.0026934673 	0.016088115 	0.14285774 	0.7950604
0.0027135678 	0.016088115 	0.14285774 	0.7950604
0.0027336683 	0.015805394 	0.13619649 	0.7911376
0.0027537688 	0.015805394 	0.13619649 	0.7911376
0.0027738693 	0.014308998 	0.12693707 	0.79281739
0.0027939698 	0.014308998 	0.12693707 	0.79281739
0.0028140704 	0.012012905 	0.1170176 	0.79813709
0.0028341709 	0.012012905 	0.1170176 	0.79813709
0.0028542714 	0.0093085493 	0.1074564 	0.80575485
0.0028743719 	0.0065227971 	0.098610288 	0.81468548
0.0028944724 	0.0065227971 	0.098610288 	0.81468548
0.0029145729 	0.0038926218 	0.090488345 	0.82411973
0.0029346734 	0.0038926218 	0.090488345 	0.82411973
0.0029547739 	0.0015557506 	0.082949892 	0.8333513
0.0029748744 	0.0015557506 	0.082949892 	0.8333513
0.0029949749 	-0.00038713709 	0.075797317 	0.84178231
0.0030150754 	-0.0018836546 	0.068812275 	0.84894932
0.0030351759 	-0.0018836546 	0.068812275 	0.84894932
0.0030552764 	-0.0029271786 	0.061778565 	0.85453938
0.0030753769 	-0.0029271786 	0.061778565 	0.85453938
0.0030954774 	-0.003552627 	0.054514966 	0.85841287
0.0031155779 	-0.003848461 	0.04690243 	0.86062678
0.0031356784 	-0.003848461 	0.04690243 	0.86062678
0.0031557789 	-0.0039668705 	0.038898878 	0.86145318
0.0031758794 	-0.0039668705 	0.038898878 	0.86145318
0.0031959799 	-0.0041380995 	0.030521493 	0.86137695
0.0032160804 	-0.0046372486 	0.021786775 	0.86106827
0.0032361809 	-0.0046372486 	0.021786775 	0.86106827
0.0032562814 	-0.0057202615 	0.01264738 	0.86124904
0.0032763819 	-0.0075804985 	0.0029152711 	0.86246893
0.0032964824 	-0.0075804985 	0.0029152711 	0.86246893
0.0033165829 	-0.010242918 	-0.0077114874 	0.86482186
0.0033366834 	-0.01343029 	-0.019483446 	0.86770207
0.0033567839 	-0.01343029 	-0.019483446 	0.86770207
0.0033768844 	-0.016721803 	-0.032385428 	0.86980922
0.0033969849 	-0.019700632 	-0.045965449 	0.86945473
0.0034170854 	-0.019700632 	-0.045965449 	0.86945473
0.0034371859 	-0.021968808 	-0.059361176 	0.86510561
0.0034572864 	-0.023272024 	-0.07147905 	0.85591819
0.0034773869 	-0.023542495 	-0.08121536 	0.84204554
0.0034974874 	-0.023542495 	-0.08121536 	0.84204554
0.0035175879 	-0.02287965 	-0.087649453 	0.8245812
0.0035376884 	-0.021497718 	-0.090202392 	0.80516827
0.0035577889 	-0.019659593 	-0.088749874 	0.78544176
0.0035778894 	-0.019659593 	-0.088749874 	0.78544176
0.0035979899 	-0.017615539 	-0.083658589 	0.76651325
0.0036180905 	-0.015561199 	-0.075727042 	0.74864779
0.003638191 	-0.013619434 	-0.066048535 	0.731185
0.0036582915 	-0.013619434 	-0.066048535 	0.731185
0.003678392 	-0.011845048 	-0.055836142 	0.71268285
0.0036984925 	-0.010242923 	-0.046242579 	0.69123478
0.003718593 	-0.0087952181 	-0.038185462 	0.66489954
0.0037386935 	-0.0074882755 	-0.032187599 	0.63216307
0.003758794 	-0.0063237719 	-0.028260244 	0.59232005
0.0037788945 	-0.0063237719 	-0.028260244 	0.59232005
0.003798995 	-0.0053143204 	-0.025890316 	0.54564994
0.0038190955 	-0.0044663101 	-0.024207298 	0.49330373
0.003839196 	-0.0037632959 	-0.022309069 	0.43692963
0.0038592965 	-0.003164614 	-0.019623255 	0.37819924
0.003879397 	-0.0026187203 	-0.016102892 	0.31845984
0.0038994975 	-0.002079922 	-0.012154533 	0.25865248
0.003919598 	-0.00152242 	-0.0083695517 	0.19942945
0.0039396985 	-0.00095432359 	-0.0052244233 	0.14125783
0.003959799 	-0.00043389985 	-0.0028747327 	0.084337953
0.0039798995 	-6.1293412e-05 	-0.0010495534 	0.028327839
0.004 	-6.1293412e-05 	-0.0010495534 	0.028327839
