0 	0.043860848 	-0.045441612 	1.0569472
5.5555556e-05 	-0.062245358 	-0.020904034 	1.0535915
0.00011111111 	-0.065660183 	-0.014220218 	1.0517066
0.00016666667 	-0.067641975 	-0.011882331 	1.0496826
0.00022222222 	-0.069089457 	-0.011183108 	1.0475614
0.00027777778 	-0.070053926 	-0.011243604 	1.0453949
0.00033333333 	-0.070477733 	-0.011680874 	1.0432529
0.00038888889 	-0.070308998 	-0.012313747 	1.0412354
0.00044444444 	-0.069527771 	-0.013067391 	1.0394714
0.0005 	-0.068146606 	-0.013923951 	1.038099
0.00055555556 	-0.066202968 	-0.01489612 	1.0372358
0.00061111111 	-0.063744176 	-0.016010136 	1.0369558
0.00066666667 	-0.060816028 	-0.017293363 	1.0372779
0.00072222222 	-0.057460552 	-0.01875869 	1.0381692
0.00077777778 	-0.053704811 	-0.020395844 	1.0395513
0.00083333333 	-0.049581376 	-0.022150065 	1.0413121
0.00088888889 	-0.045135162 	-0.023919276 	1.0433304
0.00094444444 	-0.040367636 	-0.025594569 	1.0454636
0.001 	-0.03502393 	-0.027093612 	1.0477375
0.0010617224 	-0.029151537 	-0.028370382 	1.0499734
0.0011225923 	-0.023303851 	-0.029072764 	1.0517716
0.0011826215 	-0.017563389 	-0.029285001 	1.0528981
0.0012418217 	-0.012122717 	-0.029144102 	1.0531578
0.0013002041 	-0.0071104343 	-0.028857763 	1.0524391
0.0013577803 	-0.0026614622 	-0.028681934 	1.0507285
0.0014145612 	0.0010936713 	-0.028860834 	1.0480983
0.0014705579 	0.0040565374 	-0.029638969 	1.0446592
0.0015257812 	0.006167817 	-0.031201748 	1.0404803
0.0015802418 	0.0074253425 	-0.03366161 	1.0355336
0.0016339502 	0.0079071051 	-0.037023423 	1.0296926
0.0016869168 	0.0077697569 	-0.041167057 	1.0227774
0.0017391518 	0.0072404913 	-0.045850548 	1.0146469
0.0017906654 	0.0065995867 	-0.050706121 	1.0052926
0.0018414676 	0.0061776293 	-0.055256559 	0.99489717
0.0018915681 	0.0063326193 	-0.058951488 	0.98386565
0.0019409766 	0.0073634505 	-0.06131743 	0.9728465
0.0019897027 	0.0093848708 	-0.062120301 	0.96268356
0.0020377558 	0.012273905 	-0.061521501 	0.95421131
0.0020851453 	0.015713094 	-0.059987238 	0.94792286
0.0021318802 	0.019318582 	-0.05809433 	0.94377822
0.0021779697 	0.022772961 	-0.056317458 	0.94130097
0.0022234225 	0.025896361 	-0.054934708 	0.93985226
0.0022682477 	0.02863634 	-0.054025269 	0.9388726
0.0023124537 	0.031038857 	-0.053525238 	0.93799654
0.0023560491 	0.033162078 	-0.053273434 	0.93704817
0.0023990425 	0.035025419 	-0.053045867 	0.93599107
0.002441442 	0.036595216 	-0.052600455 	0.93485923
0.002483256 	0.037772079 	-0.051699476 	0.93370427
0.0025244924 	0.038401822 	-0.050183258 	0.93259283
0.0025651593 	0.038310381 	-0.048012758 	0.93163182
0.0026052645 	0.037344848 	-0.045262196 	0.93101851
0.0026448158 	0.035411523 	-0.042074254 	0.93110715
0.0026838209 	0.032526666 	-0.038576363 	0.93237515
0.0027222872 	0.028809961 	-0.034819253 	0.93535135
0.0027602223 	0.024521736 	-0.030757455 	0.9403836
0.0027976334 	0.020010549 	-0.026319781 	0.9474115
0.0028345278 	0.015616257 	-0.021509657 	0.95590398
0.0028709126 	0.011591668 	-0.016449768 	0.96503245
0.002906795 	0.0080291675 	-0.011367424 	0.97400484
0.0029421817 	0.0048559683 	-0.0065061546 	0.98233283
0.0029770797 	0.0018722367 	-0.0020829247 	0.98993368
0.0030114957 	-0.0011250217 	0.0017757846 	0.99701381
0.0030454363 	-0.0042786215 	0.0050691245 	1.0037585
0.0030789082 	-0.007596439 	0.0079382306 	1.0099528
0.0031119178 	-0.010837618 	0.010676025 	1.0146663
0.0031444715 	-0.013577635 	0.013686624 	1.016212
0.0031765755 	-0.015340787 	0.017375087 	1.0125356
0.0032082362 	-0.015772607 	0.022003834 	1.0018988
0.0032394596 	-0.014789066 	0.027558206 	0.98358721
0.0032702517 	-0.012623195 	0.033693538 	0.9582813
0.0033006186 	-0.0097315582 	0.03979624 	0.92790251
0.003330566 	-0.0066286535 	0.045142436 	0.89501868
0.0033600998 	-0.0037327108 	0.049092539 	0.86212997
0.0033892257 	-0.001287651 	0.051236755 	0.83115305
0.0034179494 	0.00062334023 	0.051443943 	0.80323359
0.0034462763 	0.0020166159 	0.04981878 	0.77883385
0.003474212 	0.0029557365 	0.046602835 	0.75793503
0.0035017619 	0.0035304388 	0.042072324 	0.74023505
0.0035289312 	0.0038394249 	0.036473168 	0.7252769
0.0035557253 	0.0039943799 	0.030005256 	0.71251228
0.0035821494 	0.0041252868 	0.022851584 	0.7013254
0.0036082084 	0.0043280601 	0.015226183 	0.69104355
0.0036339076 	0.0046191244 	0.007418929 	0.68096926
0.0036592518 	0.0050211446 	-0.00016991131 	0.67040062
0.003684246 	0.0055171734 	-0.0070223455 	0.6586342
0.003708895 	0.0059774143 	-0.012558207 	0.64496859
0.0037332035 	0.0062429616 	-0.0161976 	0.62866081
0.0037571763 	0.0061699823 	-0.017467332 	0.60886935
0.003780818 	0.0056834867 	-0.016146884 	0.58452251
0.0038041332 	0.0048190124 	-0.012422375 	0.55414964
0.0038271264 	0.0037283875 	-0.0069777867 	0.51585816
0.0038498019 	0.002625236 	-0.00092905022 	0.46778309
0.0038721643 	0.0016866155 	0.0044560826 	0.4091033
0.0038942179 	0.00098995237 	0.008161226 	0.34102793
0.0039159668 	0.00052946607 	0.0097073886 	0.26679113
0.0039374154 	0.00025284032 	0.0091456872 	0.19028355
0.0039585677 	9.6700203e-05 	0.0067805774 	0.11418956
0.0039794279 	1.3207847e-05 	0.0028419258 	0.038777913
0.004 	1.3207847e-05 	0.0028419258 	0.038777913
