0 	0.028399882 	-0.062443418 	1.0354295
2.0100503e-05 	0.07137159 	0.032946952 	1.029371
4.0201005e-05 	0.07137159 	0.032946952 	1.029371
6.0301508e-05 	0.054936118 	0.069299879 	1.0231521
8.040201e-05 	0.054936118 	0.069299879 	1.0231521
0.00010050251 	0.054936118 	0.069299879 	1.0231521
0.00012060302 	0.050803141 	0.083186701 	1.0174463
0.00014070352 	0.050803141 	0.083186701 	1.0174463
0.00016080402 	0.050803141 	0.083186701 	1.0174463
0.00018090452 	0.050729058 	0.091850343 	1.0129045
0.00020100503 	0.050729058 	0.091850343 	1.0129045
0.00022110553 	0.050729058 	0.091850343 	1.0129045
0.00024120603 	0.013552837 	0.11460589 	0.99841431
0.00026130653 	0.013552837 	0.11460589 	0.99841431
0.00028140704 	0.019572997 	0.1153001 	0.99853921
0.00030150754 	0.019572997 	0.1153001 	0.99853921
0.00032160804 	0.019572997 	0.1153001 	0.99853921
0.00034170854 	0.024871749 	0.11204541 	1.0007569
0.00036180905 	0.024871749 	0.11204541 	1.0007569
0.00038190955 	0.024871749 	0.11204541 	1.0007569
0.00040201005 	0.057375201 	0.092018107 	1.0115585
0.00042211055 	0.057375201 	0.092018107 	1.0115585
0.00044221106 	0.057375201 	0.092018107 	1.0115585
0.00046231156 	0.057610091 	0.086300104 	1.0143204
0.00048241206 	0.057610091 	0.086300104 	1.0143204
0.00050251256 	0.057045149 	0.079831439 	1.0172966
0.00052261307 	0.057045149 	0.079831439 	1.0172966
0.00054271357 	0.057045149 	0.079831439 	1.0172966
0.00056281407 	0.056008768 	0.072766459 	1.0201346
0.00058291457 	0.056008768 	0.072766459 	1.0201346
0.00060301508 	0.056008768 	0.072766459 	1.0201346
0.00062311558 	0.054874039 	0.064798073 	1.0227812
0.00064321608 	0.054874039 	0.064798073 	1.0227812
0.00066331658 	0.054874039 	0.064798073 	1.0227812
0.00068341709 	0.033736506 	0.060604203 	1.0246472
0.00070351759 	0.033736506 	0.060604203 	1.0246472
0.00072361809 	0.034048889 	0.049411591 	1.0278574
0.00074371859 	0.034048889 	0.049411591 	1.0278574
0.0007638191 	0.053508384 	0.044402466 	1.0281694
0.0007839196 	0.053599656 	0.031612014 	1.0313328
0.0008040201 	0.053599656 	0.031612014 	1.0313328
0.0008241206 	0.053599656 	0.031612014 	1.0313328
0.00084422111 	0.036203437 	0.023212522 	1.0351714
0.00086432161 	0.036203437 	0.023212522 	1.0351714
0.00088442211 	0.036203437 	0.023212522 	1.0351714
0.00090452261 	0.054929644 	0.0031774715 	1.0398511
0.00092462312 	0.054929644 	0.0031774715 	1.0398511
0.00094472362 	0.055264798 	-0.010053343 	1.0456206
0.00096482412 	0.03958563 	-0.0040838373 	1.0453441
0.00098492462 	0.03958563 	-0.0040838373 	1.0453441
0.0010050251 	0.040928463 	-0.015740336 	1.0524639
0.0010251256 	0.040928463 	-0.015740336 	1.0524639
0.0010452261 	0.040928463 	-0.015740336 	1.0524639
0.0010653266 	0.041099879 	-0.023229898 	1.060709
0.0010854271 	0.041099879 	-0.023229898 	1.060709
0.0011055276 	0.041099879 	-0.023229898 	1.060709
0.0011256281 	0.040001956 	-0.025805575 	1.068934
0.0011457286 	0.040001956 	-0.025805575 	1.068934
0.0011658291 	0.040001956 	-0.025805575 	1.068934
0.0011859296 	0.037520041 	-0.024846646 	1.0767672
0.0012060302 	0.037520041 	-0.024846646 	1.0767672
0.0012261307 	0.037520041 	-0.024846646 	1.0767672
0.0012462312 	0.034074314 	-0.02245441 	1.0840163
0.0012663317 	0.042089236 	-0.022428723 	1.0835943
0.0012864322 	0.034074314 	-0.02245441 	1.0840163
0.0013065327 	0.030440083 	-0.02032202 	1.0899488
0.0013266332 	0.030440083 	-0.02032202 	1.0899488
0.0013467337 	0.030440083 	-0.02032202 	1.0899488
0.0013668342 	0.027212214 	-0.019267502 	1.0932726
0.0013869347 	0.027212214 	-0.019267502 	1.0932726
0.0014070352 	0.027212214 	-0.019267502 	1.0932726
0.0014271357 	0.024558984 	-0.019445759 	1.092694
0.0014472362 	0.024558984 	-0.019445759 	1.092694
0.0014673367 	0.024558984 	-0.019445759 	1.092694
0.0014874372 	0.022275009 	-0.020672252 	1.0874774
0.0015075377 	0.022275009 	-0.020672252 	1.0874774
0.0015276382 	0.020016621 	-0.022575736 	1.0777449
0.0015477387 	0.020016621 	-0.022575736 	1.0777449
0.0015678392 	0.020016621 	-0.022575736 	1.0777449
0.0015879397 	0.017457548 	-0.024653163 	1.0644635
0.0016080402 	0.017457548 	-0.024653163 	1.0644635
0.0016281407 	0.017457548 	-0.024653163 	1.0644635
0.0016482412 	0.014412598 	-0.026302567 	1.0491203
0.0016683417 	0.014412598 	-0.026302567 	1.0491203
0.0016884422 	0.011025504 	-0.026846034 	1.0331657
0.0017085427 	0.011025504 	-0.026846034 	1.0331657
0.0017286432 	0.011025504 	-0.026846034 	1.0331657
0.0017487437 	0.007796623 	-0.025557842 	1.0174904
0.0017688442 	0.007796623 	-0.025557842 	1.0174904
0.0017889447 	0.007796623 	-0.025557842 	1.0174904
0.0018090452 	0.0054892866 	-0.021882623 	1.0023557
0.0018291457 	0.0054892866 	-0.021882623 	1.0023557
0.0018492462 	0.0047670044 	-0.015722898 	0.98784299
0.0018693467 	0.0047670044 	-0.015722898 	0.98784299
0.0018894472 	0.0047670044 	-0.015722898 	0.98784299
0.0019095477 	0.0056477967 	-0.0076800638 	0.97447604
0.0019296482 	0.0056477967 	-0.0076800638 	0.97447604
0.0019497487 	0.0075844807 	0.0012719273 	0.96327089
0.0019698492 	0.0075844807 	0.0012719273 	0.96327089
0.0019899497 	0.0099467903 	0.010163175 	0.95507101
0.0020100503 	0.0099467903 	0.010163175 	0.95507101
0.0020301508 	0.0099467903 	0.010163175 	0.95507101
0.0020502513 	0.012323299 	0.018295624 	0.95010549
0.0020703518 	0.012323299 	0.018295624 	0.95010549
0.0020904523 	0.014588589 	0.025137781 	0.94809451
0.0021105528 	0.014588589 	0.025137781 	0.94809451
0.0021306533 	0.014588589 	0.025137781 	0.94809451
0.0021507538 	0.016750223 	0.030232411 	0.94858593
0.0021708543 	0.016750223 	0.030232411 	0.94858593
0.0021909548 	0.018803909 	0.033284298 	0.95114642
0.0022110553 	0.018803909 	0.033284298 	0.95114642
0.0022311558 	0.020699184 	0.034247759 	0.95534692
0.0022512563 	0.020699184 	0.034247759 	0.95534692
0.0022713568 	0.022368298 	0.033358662 	0.96072363
0.0022914573 	0.022368298 	0.033358662 	0.96072363
0.0023115578 	0.022368298 	0.033358662 	0.96072363
0.0023316583 	0.023778745 	0.031001891 	0.96678949
0.0023517588 	0.023778745 	0.031001891 	0.96678949
0.0023718593 	0.024937469 	0.027549614 	0.97310708
0.0023919598 	0.024937469 	0.027549614 	0.97310708
0.0024120603 	0.025879692 	0.023282184 	0.97930318
0.0024321608 	0.025879692 	0.023282184 	0.97930318
0.0024522613 	0.026701079 	0.018322671 	0.9850532
0.0024723618 	0.026701079 	0.018322671 	0.9850532
0.0024924623 	0.027575197 	0.012616235 	0.99003902
0.0025125628 	0.027575197 	0.012616235 	0.99003902
0.0025326633 	0.028685687 	0.005992364 	0.99387255
0.0025527638 	0.028685687 	0.005992364 	0.99387255
0.0025728643 	0.030151956 	-0.0017087158 	0.99606908
0.0025929648 	0.030151956 	-0.0017087158 	0.99606908
0.0026130653 	0.031896355 	-0.010339634 	0.99611082
0.0026331658 	0.031896355 	-0.010339634 	0.99611082
0.0026532663 	0.033502794 	-0.019091081 	0.99359726
0.0026733668 	0.033502794 	-0.019091081 	0.99359726
0.0026934673 	0.034134266 	-0.026233365 	0.98841642
0.0027135678 	0.034134266 	-0.026233365 	0.98841642
0.0027336683 	0.032654684 	-0.029368621 	0.98084181
0.0027537688 	0.032654684 	-0.029368621 	0.98084181
0.0027738693 	0.0282017 	-0.02650551 	0.97141846
0.0027939698 	0.0282017 	-0.02650551 	0.97141846
0.0028140704 	0.0210012 	-0.017653244 	0.96061199
0.0028341709 	0.0210012 	-0.017653244 	0.96061199
0.0028542714 	0.01271917 	-0.0059078075 	0.94844177
0.0028743719 	0.0057276143 	0.0035004139 	0.93439309
0.0028944724 	0.0057276143 	0.0035004139 	0.93439309
0.0029145729 	0.0017632101 	0.0064764388 	0.91769224
0.0029346734 	0.0017632101 	0.0064764388 	0.91769224
0.0029547739 	0.0012358134 	0.0025639255 	0.897767
0.0029748744 	0.0012358134 	0.0025639255 	0.897767
0.0029949749 	0.0033835741 	-0.0055876357 	0.87449606
0.0030150754 	0.0068691413 	-0.014329021 	0.84835858
0.0030351759 	0.0068691413 	-0.014329021 	0.84835858
0.0030552764 	0.010412144 	-0.020791842 	0.82064848
0.0030753769 	0.010412144 	-0.020791842 	0.82064848
0.0030954774 	0.013133454 	-0.023822601 	0.79348347
0.0031155779 	0.014648752 	-0.023860168 	0.76924599
0.0031356784 	0.014648752 	-0.023860168 	0.76924599
0.0031557789 	0.014984119 	-0.022036245 	0.74965619
0.0031758794 	0.014984119 	-0.022036245 	0.74965619
0.0031959799 	0.014384637 	-0.019366795 	0.73512023
0.0032160804 	0.01309267 	-0.016558906 	0.72477749
0.0032361809 	0.01309267 	-0.016558906 	0.72477749
0.0032562814 	0.01121051 	-0.014133295 	0.71715102
0.0032763819 	0.0087216644 	-0.012326715 	0.71098861
0.0032964824 	0.0087216644 	-0.012326715 	0.71098861
0.0033165829 	0.0056436549 	-0.010789523 	0.70564412
0.0033366834 	0.0021983213 	-0.008659657 	0.70065209
0.0033567839 	0.0021983213 	-0.008659657 	0.70065209
0.0033768844 	-0.0011459704 	-0.0051896619 	0.69497546
0.0033969849 	-0.0038613963 	-0.00038835059 	0.68696313
0.0034170854 	-0.0038613963 	-0.00038835059 	0.68696313
0.0034371859 	-0.0056196569 	0.0049492558 	0.67518221
0.0034572864 	-0.0063998326 	0.0097836215 	0.65926192
0.0034773869 	-0.0064444993 	0.013427687 	0.64000275
0.0034974874 	-0.0064444993 	0.013427687 	0.64000275
0.0035175879 	-0.0060852562 	0.015795661 	0.61877146
0.0035376884 	-0.0055628117 	0.017265604 	0.59667009
0.0035577889 	-0.004939366 	0.018347533 	0.57396044
0.0035778894 	-0.004939366 	0.018347533 	0.57396044
0.0035979899 	-0.0040903309 	0.019378709 	0.54997288
0.0036180905 	-0.0028674918 	0.020376229 	0.5235649
0.003638191 	-0.0012867687 	0.021066034 	0.49389156
0.0036582915 	-0.0012867687 	0.021066034 	0.49389156
0.003678392 	0.00045633695 	0.021066711 	0.46095547
0.0036984925 	0.0020674883 	0.02010704 	0.42566193
0.003718593 	0.0032867794 	0.01815516 	0.38944003
0.0037386935 	0.0039767025 	0.01543857 	0.35372921
0.003758794 	0.0041337384 	0.012361853 	0.31957155
0.0037788945 	0.0041337384 	0.012361853 	0.31957155
0.003798995 	0.0038551138 	0.0093475894 	0.28740285
0.0038190955 	0.0032894838 	0.0066894093 	0.25705792
0.003839196 	0.0026061156 	0.0044992874 	0.22794797
0.0038592965 	0.0019452977 	0.0027429426 	0.19932119
0.003879397 	0.0013818126 	0.0013350664 	0.17050128
0.0038994975 	0.00093749584 	0.00022233316 	0.14104037
0.003919598 	0.00059672917 	-0.00057315324 	0.11076998
0.0039396985 	0.00033316012 	-0.0009690375 	0.079767852
0.003959799 	0.00013511747 	-0.00088132681 	0.04824834
0.0039798995 	1.3333344e-05 	-0.00033995849 	0.016356905
0.004 	1.3333344e-05 	-0.00033995849 	0.016356905
