0 	-0.0233525 	0.086345434 	1.0308997
2.0100503e-05 	-0.0233525 	0.086345434 	1.0308997
4.0201005e-05 	-0.0233525 	0.086345434 	1.0308997
6.0301508e-05 	-0.063642812 	0.065204746 	1.0350076
8.040201e-05 	-0.063642812 	0.065204746 	1.0350076
0.00010050251 	-0.063642812 	0.065204746 	1.0350076
0.00012060302 	-0.073540424 	0.052225332 	1.0387514
0.00014070352 	-0.073540424 	0.052225332 	1.0387514
0.00016080402 	-0.073540424 	0.052225332 	1.0387514
0.00018090452 	-0.077836931 	0.043479923 	1.0385994
0.00020100503 	-0.077836931 	0.043479923 	1.0385994
0.00022110553 	-0.088377463 	0.021066083 	1.0319789
0.00024120603 	-0.089765473 	0.020976775 	1.0261619
0.00026130653 	-0.089765473 	0.020976775 	1.0261619
0.00028140704 	-0.095438142 	0.023817906 	1.0106389
0.00030150754 	-0.095438142 	0.023817906 	1.0106389
0.00032160804 	-0.095438142 	0.023817906 	1.0106389
0.00034170854 	-0.10552515 	0.030787248 	0.9871381
0.00036180905 	-0.10552515 	0.030787248 	0.9871381
0.00038190955 	-0.10552515 	0.030787248 	0.9871381
0.00040201005 	-0.10955508 	0.056646394 	0.96209781
0.00042211055 	-0.10955508 	0.056646394 	0.96209781
0.00044221106 	-0.10955508 	0.056646394 	0.96209781
0.00046231156 	-0.11833139 	0.059054817 	0.94639753
0.00048241206 	-0.11833139 	0.059054817 	0.94639753
0.00050251256 	-0.12336136 	0.052433882 	0.94188631
0.00052261307 	-0.12336136 	0.052433882 	0.94188631
0.00054271357 	-0.12336136 	0.052433882 	0.94188631
0.00056281407 	-0.13188725 	0.028053396 	0.9412727
0.00058291457 	-0.13188725 	0.028053396 	0.9412727
0.00060301508 	-0.13188725 	0.028053396 	0.9412727
0.00062311558 	-0.13052331 	0.018849817 	0.9456139
0.00064321608 	-0.13052331 	0.018849817 	0.9456139
0.00066331658 	-0.13052331 	0.018849817 	0.9456139
0.00068341709 	-0.12361292 	0.027794897 	0.95216176
0.00070351759 	-0.12361292 	0.027794897 	0.95216176
0.00072361809 	-0.12168579 	0.028386881 	0.95176287
0.00074371859 	-0.12168579 	0.028386881 	0.95176287
0.0007638191 	-0.12168579 	0.028386881 	0.95176287
0.0007839196 	-0.1194647 	0.029306425 	0.948255
0.0008040201 	-0.1194647 	0.029306425 	0.948255
0.0008241206 	-0.1194647 	0.029306425 	0.948255
0.00084422111 	-0.11699642 	0.029192442 	0.94282509
0.00086432161 	-0.11699642 	0.029192442 	0.94282509
0.00088442211 	-0.11699642 	0.029192442 	0.94282509
0.00090452261 	-0.11388408 	0.027672889 	0.93675539
0.00092462312 	-0.11388408 	0.027672889 	0.93675539
0.00094472362 	-0.11457373 	0.017439111 	0.92904086
0.00096482412 	-0.11457373 	0.017439111 	0.92904086
0.00098492462 	-0.11457373 	0.017439111 	0.92904086
0.0010050251 	-0.10854051 	0.014057657 	0.92197156
0.0010251256 	-0.10854051 	0.014057657 	0.92197156
0.0010452261 	-0.10854051 	0.014057657 	0.92197156
0.0010653266 	-0.10095448 	0.0094983621 	0.91442402
0.0010854271 	-0.10095448 	0.0094983621 	0.91442402
0.0011055276 	-0.10095448 	0.0094983621 	0.91442402
0.0011256281 	-0.0921334 	0.0047433824 	0.90698091
0.0011457286 	-0.0921334 	0.0047433824 	0.90698091
0.0011658291 	-0.0921334 	0.0047433824 	0.90698091
0.0011859296 	-0.082570877 	-1.8871805e-05 	0.90016921
0.0012060302 	-0.082570877 	-1.8871805e-05 	0.90016921
0.0012261307 	-0.082570877 	-1.8871805e-05 	0.90016921
0.0012462312 	-0.072629655 	-0.0046708118 	0.89513374
0.0012663317 	-0.072629655 	-0.0046708118 	0.89513374
0.0012864322 	-0.072629655 	-0.0046708118 	0.89513374
0.0013065327 	-0.062870546 	-0.0091155088 	0.89302885
0.0013266332 	-0.062870546 	-0.0091155088 	0.89302885
0.0013467337 	-0.062870546 	-0.0091155088 	0.89302885
0.0013668342 	-0.053964302 	-0.013282815 	0.89449477
0.0013869347 	-0.053964302 	-0.013282815 	0.89449477
0.0014070352 	-0.053964302 	-0.013282815 	0.89449477
0.0014271357 	-0.046530146 	-0.017297514 	0.89866023
0.0014472362 	-0.046530146 	-0.017297514 	0.89866023
0.0014673367 	-0.046530146 	-0.017297514 	0.89866023
0.0014874372 	-0.040767881 	-0.021965587 	0.90295998
0.0015075377 	-0.040767881 	-0.021965587 	0.90295998
0.0015276382 	-0.036148778 	-0.028577824 	0.90451162
0.0015477387 	-0.036148778 	-0.028577824 	0.90451162
0.0015678392 	-0.036148778 	-0.028577824 	0.90451162
0.0015879397 	-0.03178591 	-0.037671402 	0.90206202
0.0016080402 	-0.03178591 	-0.037671402 	0.90206202
0.0016281407 	-0.03178591 	-0.037671402 	0.90206202
0.0016482412 	-0.027248151 	-0.048100528 	0.89604816
0.0016683417 	-0.027248151 	-0.048100528 	0.89604816
0.0016884422 	-0.022750199 	-0.057784275 	0.88733461
0.0017085427 	-0.022750199 	-0.057784275 	0.88733461
0.0017286432 	-0.022750199 	-0.057784275 	0.88733461
0.0017487437 	-0.018766075 	-0.065394224 	0.87659694
0.0017688442 	-0.018766075 	-0.065394224 	0.87659694
0.0017889447 	-0.018766075 	-0.065394224 	0.87659694
0.0018090452 	-0.015776595 	-0.071418217 	0.86447001
0.0018291457 	-0.015776595 	-0.071418217 	0.86447001
0.0018492462 	-0.014129242 	-0.077873819 	0.85166986
0.0018693467 	-0.014129242 	-0.077873819 	0.85166986
0.0018894472 	-0.014129242 	-0.077873819 	0.85166986
0.0019095477 	-0.013729368 	-0.086802147 	0.83899201
0.0019296482 	-0.013729368 	-0.086802147 	0.83899201
0.0019497487 	-0.014047239 	-0.098427091 	0.82765688
0.0019698492 	-0.014047239 	-0.098427091 	0.82765688
0.0019899497 	-0.014627342 	-0.1107401 	0.81948797
0.0020100503 	-0.014627342 	-0.1107401 	0.81948797
0.0020301508 	-0.014627342 	-0.1107401 	0.81948797
0.0020502513 	-0.015275708 	-0.12111844 	0.81592218
0.0020703518 	-0.015275708 	-0.12111844 	0.81592218
0.0020904523 	-0.015782302 	-0.12796387 	0.8168552
0.0021105528 	-0.015782302 	-0.12796387 	0.8168552
0.0021306533 	-0.015782302 	-0.12796387 	0.8168552
0.0021507538 	-0.015695923 	-0.1307408 	0.8209241
0.0021708543 	-0.015695923 	-0.1307408 	0.8209241
0.0021909548 	-0.014438295 	-0.12945464 	0.82653812
0.0022110553 	-0.014438295 	-0.12945464 	0.82653812
0.0022311558 	-0.011577585 	-0.12445264 	0.83240926
0.0022512563 	-0.011577585 	-0.12445264 	0.83240926
0.0022713568 	-0.0070044193 	-0.11632892 	0.83768605
0.0022914573 	-0.0070044193 	-0.11632892 	0.83768605
0.0023115578 	-0.0070044193 	-0.11632892 	0.83768605
0.0023316583 	-0.00094888542 	-0.10574037 	0.84198997
0.0023517588 	-0.00094888542 	-0.10574037 	0.84198997
0.0023718593 	0.0061089092 	-0.093228963 	0.84532772
0.0023919598 	0.0061089092 	-0.093228963 	0.84532772
0.0024120603 	0.013508632 	-0.079262823 	0.84798364
0.0024321608 	0.013508632 	-0.079262823 	0.84798364
0.0024522613 	0.020394834 	-0.064228985 	0.85045595
0.0024723618 	0.020394834 	-0.064228985 	0.85045595
0.0024924623 	0.025942212 	-0.048652083 	0.85346321
0.0025125628 	0.025942212 	-0.048652083 	0.85346321
0.0025326633 	0.029385253 	-0.033183119 	0.85788469
0.0025527638 	0.029385253 	-0.033183119 	0.85788469
0.0025728643 	0.030198284 	-0.018478528 	0.86476103
0.0025929648 	0.030198284 	-0.018478528 	0.86476103
0.0026130653 	0.028255556 	-0.0049647408 	0.87513672
0.0026331658 	0.028255556 	-0.0049647408 	0.87513672
0.0026532663 	0.02395094 	0.0073841614 	0.88971661
0.0026733668 	0.02395094 	0.0073841614 	0.88971661
0.0026934673 	0.018008771 	0.018958505 	0.90840398
0.0027135678 	0.018008771 	0.018958505 	0.90840398
0.0027336683 	0.011139573 	0.030301679 	0.92989348
0.0027537688 	0.011139573 	0.030301679 	0.92989348
0.0027738693 	0.0040805416 	0.041611296 	0.95192479
0.0027939698 	0.0040805416 	0.041611296 	0.95192479
0.0028140704 	-0.002607432 	0.05259158 	0.97218452
0.0028341709 	-0.002607432 	0.05259158 	0.97218452
0.0028542714 	-0.0086407726 	0.062637418 	0.98918614
0.0028743719 	-0.013888809 	0.071264568 	1.0026086
0.0028944724 	-0.013888809 	0.071264568 	1.0026086
0.0029145729 	-0.018346013 	0.078368288 	1.0129331
0.0029346734 	-0.018346013 	0.078368288 	1.0129331
0.0029547739 	-0.022128549 	0.084198426 	1.0209252
0.0029748744 	-0.022128549 	0.084198426 	1.0209252
0.0029949749 	-0.025395011 	0.089173914 	1.0272629
0.0030150754 	-0.028324244 	0.093715219 	1.0324129
0.0030351759 	-0.028324244 	0.093715219 	1.0324129
0.0030552764 	-0.031069292 	0.098151517 	1.0366262
0.0030753769 	-0.031069292 	0.098151517 	1.0366262
0.0030954774 	-0.033729907 	0.10267629 	1.0399516
0.0031155779 	-0.036348995 	0.10731075 	1.0422534
0.0031356784 	-0.036348995 	0.10731075 	1.0422534
0.0031557789 	-0.038929565 	0.11187551 	1.0432664
0.0031758794 	-0.038929565 	0.11187551 	1.0432664
0.0031959799 	-0.041458377 	0.11599937 	1.0426773
0.0032160804 	-0.043912978 	0.11919188 	1.040176
0.0032361809 	-0.043912978 	0.11919188 	1.040176
0.0032562814 	-0.046242334 	0.12096388 	1.0354287
0.0032763819 	-0.048329528 	0.12094779 	1.0279887
0.0032964824 	-0.048329528 	0.12094779 	1.0279887
0.0033165829 	-0.049965359 	0.11896184 	1.0172224
0.0033366834 	-0.050866367 	0.11501043 	1.0023528
0.0033567839 	-0.050866367 	0.11501043 	1.0023528
0.0033768844 	-0.050749425 	0.10925541 	0.9826593
0.0033969849 	-0.049431412 	0.10199703 	0.95777625
0.0034170854 	-0.049431412 	0.10199703 	0.95777625
0.0034371859 	-0.0469092 	0.09368185 	0.92796538
0.0034572864 	-0.043371736 	0.084888692 	0.89419443
0.0034773869 	-0.039145923 	0.076259649 	0.85796711
0.0034974874 	-0.039145923 	0.076259649 	0.85796711
0.0035175879 	-0.034597881 	0.068369965 	0.82097878
0.0035376884 	-0.03004022 	0.061574145 	0.78472367
0.0035577889 	-0.025687862 	0.055909571 	0.75021139
0.0035778894 	-0.025687862 	0.055909571 	0.75021139
0.0035979899 	-0.021661835 	0.05111046 	0.71785463
0.0036180905 	-0.01802611 	0.046731522 	0.68749765
0.003638191 	-0.014819841 	0.042329926 	0.65850624
0.0036582915 	-0.014819841 	0.042329926 	0.65850624
0.003678392 	-0.012070572 	0.037631129 	0.62986418
0.0036984925 	-0.00978772 	0.032620534 	0.60028289
0.003718593 	-0.0079522702 	0.027538312 	0.56837261
0.0037386935 	-0.0065134575 	0.022784765 	0.53290368
0.003758794 	-0.0053961879 	0.018767184 	0.49312054
0.0037788945 	-0.0053961879 	0.018767184 	0.49312054
0.003798995 	-0.0045159861 	0.015741291 	0.44899453
0.0038190955 	-0.00379526 	0.013712596 	0.40128065
0.003839196 	-0.0031744219 	0.012442793 	0.3513188
0.0038592965 	-0.0026144997 	0.011554481 	0.30065937
0.003879397 	-0.0020927361 	0.010675672 	0.25068144
0.0038994975 	-0.0015965401 	0.0095542535 	0.20234046
0.003919598 	-0.0011209235 	0.0081023742 	0.15606658
0.0039396985 	-0.00067392238 	0.0063653224 	0.11172369
0.003959799 	-0.00028887572 	0.0044029921 	0.068475897
0.0039798995 	-3.5339693e-05 	0.0020022674 	0.024409008
0.004 	-3.5339693e-05 	0.0020022674 	0.024409008
