0 	-0.013202754 	0.0029096418 	1.1429796
2.0100503e-05 	-0.013202754 	0.0029096418 	1.1429796
4.0201005e-05 	-0.013202754 	0.0029096418 	1.1429796
6.0301508e-05 	-0.011297274 	0.0077098937 	1.1449993
8.040201e-05 	-0.011297274 	0.0077098937 	1.1449993
0.00010050251 	-0.011297274 	0.0077098937 	1.1449993
0.00012060302 	-0.011549128 	0.0098727182 	1.1466815
0.00014070352 	-0.011549128 	0.0098727182 	1.1466815
0.00016080402 	-0.011549128 	0.0098727182 	1.1466815
0.00018090452 	-0.012679455 	0.013294807 	1.1485048
0.00020100503 	-0.012679455 	0.013294807 	1.1485048
0.00022110553 	-0.012679455 	0.013294807 	1.1485048
0.00024120603 	-0.014280306 	0.018409845 	1.1506065
0.00026130653 	-0.0030594356 	0.020196184 	1.1491669
0.00028140704 	-0.0046716632 	0.027264464 	1.1528092
0.00030150754 	-0.0046716632 	0.027264464 	1.1528092
0.00032160804 	-0.0046716632 	0.027264464 	1.1528092
0.00034170854 	-0.01807462 	0.031383933 	1.1528716
0.00036180905 	-0.01807462 	0.031383933 	1.1528716
0.00038190955 	-0.01807462 	0.031383933 	1.1528716
0.00040201005 	-0.019871272 	0.037481663 	1.1504789
0.00042211055 	-0.019871272 	0.037481663 	1.1504789
0.00044221106 	-0.019871272 	0.037481663 	1.1504789
0.00046231156 	-0.021364696 	0.042468149 	1.1441381
0.00048241206 	-0.021364696 	0.042468149 	1.1441381
0.00050251256 	-0.022429922 	0.0460014 	1.1333455
0.00052261307 	-0.022429922 	0.0460014 	1.1333455
0.00054271357 	-0.022429922 	0.0460014 	1.1333455
0.00056281407 	-0.022981367 	0.047983868 	1.1184222
0.00058291457 	-0.022981367 	0.047983868 	1.1184222
0.00060301508 	-0.022981367 	0.047983868 	1.1184222
0.00062311558 	-0.023018258 	0.048428532 	1.1003403
0.00064321608 	-0.023018258 	0.048428532 	1.1003403
0.00066331658 	-0.023018258 	0.048428532 	1.1003403
0.00068341709 	-0.022578952 	0.047425763 	1.0803827
0.00070351759 	-0.022578952 	0.047425763 	1.0803827
0.00072361809 	-0.021772508 	0.045126098 	1.0598453
0.00074371859 	-0.021772508 	0.045126098 	1.0598453
0.0007638191 	-0.013563342 	0.05583781 	1.0749693
0.0007839196 	-0.013471516 	0.05250922 	1.054226
0.0008040201 	-0.013471516 	0.05250922 	1.054226
0.0008241206 	-0.013471516 	0.05250922 	1.054226
0.00084422111 	-0.013517247 	0.047772054 	1.0348871
0.00086432161 	-0.013517247 	0.047772054 	1.0348871
0.00088442211 	-0.013517247 	0.047772054 	1.0348871
0.00090452261 	-0.019480414 	0.03092943 	1.0060242
0.00092462312 	-0.019480414 	0.03092943 	1.0060242
0.00094472362 	-0.019377798 	0.02352775 	0.99313155
0.00096482412 	-0.019377798 	0.02352775 	0.99313155
0.00098492462 	-0.019377798 	0.02352775 	0.99313155
0.0010050251 	-0.019508304 	0.014566322 	0.98223085
0.0010251256 	-0.019508304 	0.014566322 	0.98223085
0.0010452261 	-0.019508304 	0.014566322 	0.98223085
0.0010653266 	-0.019922851 	0.0048197357 	0.97340857
0.0010854271 	-0.019922851 	0.0048197357 	0.97340857
0.0011055276 	-0.019922851 	0.0048197357 	0.97340857
0.0011256281 	-0.0203589 	-0.0035636924 	0.96717818
0.0011457286 	-0.0203589 	-0.0035636924 	0.96717818
0.0011658291 	-0.0203589 	-0.0035636924 	0.96717818
0.0011859296 	-0.020917817 	-0.0094042433 	0.96313283
0.0012060302 	-0.020917817 	-0.0094042433 	0.96313283
0.0012261307 	-0.020917817 	-0.0094042433 	0.96313283
0.0012462312 	-0.021641289 	-0.012522611 	0.96075445
0.0012663317 	-0.021641289 	-0.012522611 	0.96075445
0.0012864322 	-0.021641289 	-0.012522611 	0.96075445
0.0013065327 	-0.022466266 	-0.013441613 	0.95945534
0.0013266332 	-0.022466266 	-0.013441613 	0.95945534
0.0013467337 	-0.022466266 	-0.013441613 	0.95945534
0.0013668342 	-0.023321243 	-0.013027017 	0.95879099
0.0013869347 	-0.023321243 	-0.013027017 	0.95879099
0.0014070352 	-0.023321243 	-0.013027017 	0.95879099
0.0014271357 	-0.02415333 	-0.012115246 	0.95846928
0.0014472362 	-0.02415333 	-0.012115246 	0.95846928
0.0014673367 	-0.02415333 	-0.012115246 	0.95846928
0.0014874372 	-0.024876716 	-0.011253015 	0.95830317
0.0015075377 	-0.024876716 	-0.011253015 	0.95830317
0.0015276382 	-0.025408595 	-0.010691934 	0.95820167
0.0015477387 	-0.025408595 	-0.010691934 	0.95820167
0.0015678392 	-0.025408595 	-0.010691934 	0.95820167
0.0015879397 	-0.025663983 	-0.010468571 	0.95819667
0.0016080402 	-0.025663983 	-0.010468571 	0.95819667
0.0016281407 	-0.025663983 	-0.010468571 	0.95819667
0.0016482412 	-0.025568371 	-0.010482809 	0.95842792
0.0016683417 	-0.025568371 	-0.010482809 	0.95842792
0.0016884422 	-0.025082437 	-0.010511132 	0.95908402
0.0017085427 	-0.025082437 	-0.010511132 	0.95908402
0.0017286432 	-0.025082437 	-0.010511132 	0.95908402
0.0017487437 	-0.024171364 	-0.010246986 	0.96028329
0.0017688442 	-0.024171364 	-0.010246986 	0.96028329
0.0017889447 	-0.024171364 	-0.010246986 	0.96028329
0.0018090452 	-0.022801901 	-0.0093656037 	0.96196465
0.0018291457 	-0.022801901 	-0.0093656037 	0.96196465
0.0018492462 	-0.021007947 	-0.007642408 	0.96388995
0.0018693467 	-0.021007947 	-0.007642408 	0.96388995
0.0018894472 	-0.021007947 	-0.007642408 	0.96388995
0.0019095477 	-0.018847144 	-0.0049952366 	0.96571864
0.0019296482 	-0.018847144 	-0.0049952366 	0.96571864
0.0019497487 	-0.016381675 	-0.0015454546 	0.96713505
0.0019698492 	-0.016381675 	-0.0015454546 	0.96713505
0.0019899497 	-0.013719319 	0.0023800223 	0.96790098
0.0020100503 	-0.013719319 	0.0023800223 	0.96790098
0.0020301508 	-0.013719319 	0.0023800223 	0.96790098
0.0020502513 	-0.011024032 	0.0062721196 	0.96791012
0.0020703518 	-0.011024032 	0.0062721196 	0.96791012
0.0020904523 	-0.0084609873 	0.0095359442 	0.96719513
0.0021105528 	-0.0084609873 	0.0095359442 	0.96719513
0.0021306533 	-0.0084609873 	0.0095359442 	0.96719513
0.0021507538 	-0.0061088678 	0.01161397 	0.96594169
0.0021708543 	-0.0061088678 	0.01161397 	0.96594169
0.0021909548 	-0.0040291023 	0.012171894 	0.9645117
0.0022110553 	-0.0040291023 	0.012171894 	0.9645117
0.0022311558 	-0.0022661673 	0.011185176 	0.96334556
0.0022512563 	-0.0022661673 	0.011185176 	0.96334556
0.0022713568 	-0.00074196607 	0.0089421992 	0.96285876
0.0022914573 	-0.00074196607 	0.0089421992 	0.96285876
0.0023115578 	-0.00074196607 	0.0089421992 	0.96285876
0.0023316583 	0.00061615993 	0.005779704 	0.96326929
0.0023517588 	0.00061615993 	0.005779704 	0.96326929
0.0023718593 	0.001821209 	0.0019528343 	0.9644629
0.0023919598 	0.001821209 	0.0019528343 	0.9644629
0.0024120603 	0.0028568392 	-0.0025015638 	0.96591455
0.0024321608 	0.0028568392 	-0.0025015638 	0.96591455
0.0024522613 	0.0036986677 	-0.0076541925 	0.96675975
0.0024723618 	0.0036986677 	-0.0076541925 	0.96675975
0.0024924623 	0.0043555152 	-0.013425795 	0.96610371
0.0025125628 	0.0043555152 	-0.013425795 	0.96610371
0.0025326633 	0.0048111102 	-0.01942596 	0.96327302
0.0025527638 	0.0048111102 	-0.01942596 	0.96327302
0.0025728643 	0.0050558642 	-0.024964203 	0.95799213
0.0025929648 	0.0050558642 	-0.024964203 	0.95799213
0.0026130653 	0.005138155 	-0.02924808 	0.95038538
0.0026331658 	0.005138155 	-0.02924808 	0.95038538
0.0026532663 	0.0050869553 	-0.03167274 	0.94099077
0.0026733668 	0.0050869553 	-0.03167274 	0.94099077
0.0026934673 	0.0048311202 	-0.032079886 	0.93078294
0.0027135678 	0.0048311202 	-0.032079886 	0.93078294
0.0027336683 	0.0042043033 	-0.030839937 	0.92102894
0.0027537688 	0.0042043033 	-0.030839937 	0.92102894
0.0027738693 	0.0030370141 	-0.028705914 	0.91289471
0.0027939698 	0.0030370141 	-0.028705914 	0.91289471
0.0028140704 	0.0012865455 	-0.026507964 	0.90703598
0.0028341709 	0.0012865455 	-0.026507964 	0.90703598
0.0028542714 	-0.00090786752 	-0.024852094 	0.90343553
0.0028743719 	-0.0032222137 	-0.023949294 	0.90155134
0.0028944724 	-0.0032222137 	-0.023949294 	0.90155134
0.0029145729 	-0.0052247585 	-0.023642243 	0.9006149
0.0029346734 	-0.0052247585 	-0.023642243 	0.9006149
0.0029547739 	-0.006475277 	-0.023568337 	0.89989434
0.0029748744 	-0.006475277 	-0.023568337 	0.89989434
0.0029949749 	-0.0065931375 	-0.023350216 	0.89883842
0.0030150754 	-0.00534533 	-0.02270994 	0.89713969
0.0030351759 	-0.00534533 	-0.02270994 	0.89713969
0.0030552764 	-0.0027013489 	-0.021485757 	0.89471169
0.0030753769 	-0.0027013489 	-0.021485757 	0.89471169
0.0030954774 	0.0012130783 	-0.01961233 	0.89164133
0.0031155779 	0.0061569741 	-0.017093731 	0.88811927
0.0031356784 	0.0061569741 	-0.017093731 	0.88811927
0.0031557789 	0.011787386 	-0.013992156 	0.88436227
0.0031758794 	0.011787386 	-0.013992156 	0.88436227
0.0031959799 	0.017687349 	-0.010421543 	0.88055205
0.0032160804 	0.023403609 	-0.0065500911 	0.87679641
0.0032361809 	0.023403609 	-0.0065500911 	0.87679641
0.0032562814 	0.028482722 	-0.0026040937 	0.87313585
0.0032763819 	0.032496685 	0.0010966877 	0.8695969
0.0032964824 	0.032496685 	0.0010966877 	0.8695969
0.0033165829 	0.035072958 	0.0041724633 	0.86628007
0.0033366834 	0.035934863 	0.0062089345 	0.86343119
0.0033567839 	0.035934863 	0.0062089345 	0.86343119
0.0033768844 	0.034926221 	0.0067868837 	0.8614417
0.0033969849 	0.032029643 	0.0055189163 	0.86071974
0.0034170854 	0.032029643 	0.0055189163 	0.86071974
0.0034371859 	0.027417654 	0.0021220268 	0.86140436
0.0034572864 	0.021546475 	-0.0034556509 	0.86300321
0.0034773869 	0.015133468 	-0.010879263 	0.86413931
0.0034974874 	0.015133468 	-0.010879263 	0.86413931
0.0035175879 	0.0090098025 	-0.019315504 	0.86269527
0.0035376884 	0.0039920304 	-0.027483843 	0.85640545
0.0035577889 	0.00067756395 	-0.033906163 	0.84371215
0.0035778894 	0.00067756395 	-0.033906163 	0.84371215
0.0035979899 	-0.00073001293 	-0.037276305 	0.82442536
0.0036180905 	-0.00039896991 	-0.036784866 	0.79978019
0.003638191 	0.0012560806 	-0.032276177 	0.77184729
0.0036582915 	0.0012560806 	-0.032276177 	0.77184729
0.003678392 	0.0037117833 	-0.024195526 	0.74262516
0.0036984925 	0.0064379567 	-0.013429464 	0.71334588
0.003718593 	0.0090938721 	-0.0011687566 	0.68442368
0.0037386935 	0.011419139 	0.011352366 	0.65557169
0.003758794 	0.01309192 	0.022917051 	0.62601046
0.0037788945 	0.01309192 	0.022917051 	0.62601046
0.003798995 	0.013885346 	0.03246842 	0.59471373
0.0038190955 	0.01370179 	0.039185274 	0.56040012
0.003839196 	0.012593689 	0.042562525 	0.52138109
0.0038592965 	0.010759592 	0.042492824 	0.47558488
0.003879397 	0.0085023193 	0.039319481 	0.42105418
0.0038994975 	0.0061486909 	0.033796889 	0.3568675
0.003919598 	0.0039697325 	0.026901835 	0.28391599
0.0039396985 	0.0021500271 	0.019521226 	0.20483038
0.003959799 	0.00081812911 	0.012127591 	0.12292971
0.0039798995 	7.9061423e-05 	0.004518226 	0.040849596
0.004 	7.9061423e-05 	0.004518226 	0.040849596
