0 	-0.016703662 	0.025632586 	1.0788821
2.0100503e-05 	-0.016703662 	0.025632586 	1.0788821
4.0201005e-05 	-0.016703662 	0.025632586 	1.0788821
6.0301508e-05 	-0.027402791 	0.019636803 	1.0732986
8.040201e-05 	-0.027402791 	0.019636803 	1.0732986
0.00010050251 	-0.027402791 	0.019636803 	1.0732986
0.00012060302 	-0.030418652 	0.020048087 	1.0676632
0.00014070352 	-0.030418652 	0.020048087 	1.0676632
0.00016080402 	-0.030418652 	0.020048087 	1.0676632
0.00018090452 	-0.031935718 	0.021990154 	1.0622871
0.00020100503 	-0.031935718 	0.021990154 	1.0622871
0.00022110553 	-0.031935718 	0.021990154 	1.0622871
0.00024120603 	-0.032822606 	0.024146897 	1.0570725
0.00026130653 	-0.032822606 	0.024146897 	1.0570725
0.00028140704 	-0.033434572 	0.026020209 	1.051705
0.00030150754 	-0.033434572 	0.026020209 	1.051705
0.00032160804 	-0.033434572 	0.026020209 	1.051705
0.00034170854 	-0.034004978 	0.027465282 	1.0458686
0.00036180905 	-0.034004978 	0.027465282 	1.0458686
0.00038190955 	-0.034004978 	0.027465282 	1.0458686
0.00040201005 	-0.034706564 	0.028583286 	1.0393815
0.00042211055 	-0.034706564 	0.028583286 	1.0393815
0.00044221106 	-0.034706564 	0.028583286 	1.0393815
0.00046231156 	-0.035637916 	0.02963466 	1.0322568
0.00048241206 	-0.035637916 	0.02963466 	1.0322568
0.00050251256 	-0.036807963 	0.03093099 	1.0246863
0.00052261307 	-0.036807963 	0.03093099 	1.0246863
0.00054271357 	-0.036807963 	0.03093099 	1.0246863
0.00056281407 	-0.03813511 	0.032716198 	1.0169764
0.00058291457 	-0.03813511 	0.032716198 	1.0169764
0.00060301508 	-0.03813511 	0.032716198 	1.0169764
0.00062311558 	-0.039466452 	0.035125403 	1.0094312
0.00064321608 	-0.039466452 	0.035125403 	1.0094312
0.00066331658 	-0.039466452 	0.035125403 	1.0094312
0.00068341709 	-0.040608703 	0.038177631 	1.0022974
0.00070351759 	-0.040608703 	0.038177631 	1.0022974
0.00072361809 	-0.041332715 	0.041797708 	0.99579764
0.00074371859 	-0.041332715 	0.041797708 	0.99579764
0.0007638191 	-0.041332715 	0.041797708 	0.99579764
0.0007839196 	-0.041339094 	0.045799643 	0.99022784
0.0008040201 	-0.041339094 	0.045799643 	0.99022784
0.0008241206 	-0.041339094 	0.045799643 	0.99022784
0.00084422111 	-0.040331046 	0.049880151 	0.98599403
0.00086432161 	-0.040331046 	0.049880151 	0.98599403
0.00088442211 	-0.040331046 	0.049880151 	0.98599403
0.00090452261 	-0.038125503 	0.053631015 	0.98358053
0.00092462312 	-0.038125503 	0.053631015 	0.98358053
0.00094472362 	-0.034606444 	0.056687848 	0.98337673
0.00096482412 	-0.034606444 	0.056687848 	0.98337673
0.00098492462 	-0.034606444 	0.056687848 	0.98337673
0.0010050251 	-0.033229694 	0.059456019 	0.95468353
0.0010251256 	-0.033229694 	0.059456019 	0.95468353
0.0010452261 	-0.033229694 	0.059456019 	0.95468353
0.0010653266 	-0.02570681 	0.06143274 	0.95790627
0.0010854271 	-0.02570681 	0.06143274 	0.95790627
0.0011055276 	-0.02570681 	0.06143274 	0.95790627
0.0011256281 	-0.018139898 	0.06264555 	0.96448515
0.0011457286 	-0.018139898 	0.06264555 	0.96448515
0.0011658291 	-0.018139898 	0.06264555 	0.96448515
0.0011859296 	-0.011234033 	0.063624492 	0.97318393
0.0012060302 	-0.011234033 	0.063624492 	0.97318393
0.0012261307 	-0.011234033 	0.063624492 	0.97318393
0.0012462312 	-0.005788428 	0.064860811 	0.98254855
0.0012663317 	-0.005788428 	0.064860811 	0.98254855
0.0012864322 	-0.005788428 	0.064860811 	0.98254855
0.0013065327 	-0.0017483956 	0.066141092 	0.99165972
0.0013266332 	-0.0017483956 	0.066141092 	0.99165972
0.0013467337 	-0.0017483956 	0.066141092 	0.99165972
0.0013668342 	0.0012653538 	0.066963054 	1.0002572
0.0013869347 	0.0012653538 	0.066963054 	1.0002572
0.0014070352 	0.0012653538 	0.066963054 	1.0002572
0.0014271357 	0.0036468 	0.067181078 	1.0081247
0.0014472362 	0.0036468 	0.067181078 	1.0081247
0.0014673367 	0.0036468 	0.067181078 	1.0081247
0.0014874372 	0.0054981282 	0.06734504 	1.0147163
0.0015075377 	0.0054981282 	0.06734504 	1.0147163
0.0015276382 	0.0065873434 	0.068339089 	1.0194699
0.0015477387 	0.0065873434 	0.068339089 	1.0194699
0.0015678392 	0.0065873434 	0.068339089 	1.0194699
0.0015879397 	0.0068882402 	0.070641043 	1.0221854
0.0016080402 	0.0068882402 	0.070641043 	1.0221854
0.0016281407 	0.0068882402 	0.070641043 	1.0221854
0.0016482412 	0.0068704419 	0.073760678 	1.0229464
0.0016683417 	0.0068704419 	0.073760678 	1.0229464
0.0016884422 	0.0074192243 	0.07626244 	1.0218287
0.0017085427 	0.0074192243 	0.07626244 	1.0218287
0.0017286432 	0.0074192243 	0.07626244 	1.0218287
0.0017487437 	0.0094472717 	0.076410997 	1.0188284
0.0017688442 	0.0094472717 	0.076410997 	1.0188284
0.0017889447 	0.0094472717 	0.076410997 	1.0188284
0.0018090452 	0.013598103 	0.073006337 	1.0137631
0.0018291457 	0.013598103 	0.073006337 	1.0137631
0.0018492462 	0.020206485 	0.066005502 	1.0055882
0.0018693467 	0.020206485 	0.066005502 	1.0055882
0.0018894472 	0.020206485 	0.066005502 	1.0055882
0.0019095477 	0.028938006 	0.056636001 	0.99194134
0.0019296482 	0.028938006 	0.056636001 	0.99194134
0.0019497487 	0.03832047 	0.047190857 	0.97054011
0.0019698492 	0.03832047 	0.047190857 	0.97054011
0.0019899497 	0.03832047 	0.047190857 	0.97054011
0.0020100503 	0.046160818 	0.040257433 	0.94148729
0.0020301508 	0.046160818 	0.040257433 	0.94148729
0.0020502513 	0.050315755 	0.038477791 	0.90895652
0.0020703518 	0.050315755 	0.038477791 	0.90895652
0.0020904523 	0.048932052 	0.043624604 	0.87995881
0.0021105528 	0.048932052 	0.043624604 	0.87995881
0.0021306533 	0.048932052 	0.043624604 	0.87995881
0.0021507538 	0.040683815 	0.05477372 	0.86008398
0.0021708543 	0.040683815 	0.05477372 	0.86008398
0.0021909548 	0.025675918 	0.068726016 	0.85124868
0.0022110553 	0.025675918 	0.068726016 	0.85124868
0.0022311558 	0.0059867643 	0.081737942 	0.85256776
0.0022512563 	0.0059867643 	0.081737942 	0.85256776
0.0022713568 	-0.015303789 	0.090785365 	0.86190699
0.0022914573 	-0.015303789 	0.090785365 	0.86190699
0.0023115578 	-0.015303789 	0.090785365 	0.86190699
0.0023316583 	-0.035475556 	0.094941787 	0.87613381
0.0023517588 	-0.035475556 	0.094941787 	0.87613381
0.0023718593 	-0.052643758 	0.095702554 	0.89068295
0.0023919598 	-0.052643758 	0.095702554 	0.89068295
0.0024120603 	-0.065734273 	0.0950163 	0.90079389
0.0024321608 	-0.065734273 	0.0950163 	0.90079389
0.0024522613 	-0.074450562 	0.09342974 	0.90387144
0.0024723618 	-0.074450562 	0.09342974 	0.90387144
0.0024924623 	-0.079165344 	0.090327812 	0.90034521
0.0025125628 	-0.079165344 	0.090327812 	0.90034521
0.0025326633 	-0.080731325 	0.085060198 	0.89276424
0.0025527638 	-0.080731325 	0.085060198 	0.89276424
0.0025728643 	-0.080070702 	0.077547753 	0.88420149
0.0025929648 	-0.080070702 	0.077547753 	0.88420149
0.0026130653 	-0.077732164 	0.068215745 	0.87678149
0.0026331658 	-0.077732164 	0.068215745 	0.87678149
0.0026532663 	-0.07385486 	0.057651096 	0.87107924
0.0026733668 	-0.07385486 	0.057651096 	0.87107924
0.0026934673 	-0.068310667 	0.046448547 	0.8667076
0.0027135678 	-0.068310667 	0.046448547 	0.8667076
0.0027336683 	-0.061109726 	0.035282295 	0.86309607
0.0027537688 	-0.061109726 	0.035282295 	0.86309607
0.0027738693 	-0.052381777 	0.024877068 	0.85996416
0.0027939698 	-0.052381777 	0.024877068 	0.85996416
0.0028140704 	-0.042459923 	0.01572485 	0.85726498
0.0028341709 	-0.042459923 	0.01572485 	0.85726498
0.0028542714 	-0.031814699 	0.008034883 	0.85510035
0.0028743719 	-0.02101243 	0.0017946553 	0.85367388
0.0028944724 	-0.02101243 	0.0017946553 	0.85367388
0.0029145729 	-0.010669631 	-0.0030353175 	0.853164
0.0029346734 	-0.010669631 	-0.0030353175 	0.853164
0.0029547739 	-0.001408143 	-0.0063270205 	0.85370328
0.0029748744 	-0.001408143 	-0.0063270205 	0.85370328
0.0029949749 	0.0061912135 	-0.0078026566 	0.85546833
0.0030150754 	0.011778577 	-0.006972588 	0.85861746
0.0030351759 	0.011778577 	-0.006972588 	0.85861746
0.0030552764 	0.015310332 	-0.0032364361 	0.86318064
0.0030753769 	0.015310332 	-0.0032364361 	0.86318064
0.0030954774 	0.016986581 	0.0039134448 	0.86891362
0.0031155779 	0.017102284 	0.014423977 	0.87515518
0.0031356784 	0.017102284 	0.014423977 	0.87515518
0.0031557789 	0.015998559 	0.027556419 	0.88092853
0.0031758794 	0.015998559 	0.027556419 	0.88092853
0.0031959799 	0.014015511 	0.041827028 	0.88523184
0.0032160804 	0.011400153 	0.055426521 	0.88732795
0.0032361809 	0.011400153 	0.055426521 	0.88732795
0.0032562814 	0.008212371 	0.066857036 	0.88684741
0.0032763819 	0.0044344426 	0.075398287 	0.88358488
0.0032964824 	0.0044344426 	0.075398287 	0.88358488
0.0033165829 	7.3786411e-05 	0.081309764 	0.87708958
0.0033366834 	-0.0047665002 	0.085701079 	0.86649226
0.0033567839 	-0.0047665002 	0.085701079 	0.86649226
0.0033768844 	-0.0098064025 	0.090049354 	0.85074973
0.0033969849 	-0.014651673 	0.095603077 	0.82918488
0.0034170854 	-0.014651673 	0.095603077 	0.82918488
0.0034371859 	-0.018899963 	0.10289448 	0.80187166
0.0034572864 	-0.022213306 	0.11150579 	0.76962033
0.0034773869 	-0.024381523 	0.12017333 	0.73377878
0.0034974874 	-0.024381523 	0.12017333 	0.73377878
0.0035175879 	-0.025383879 	0.1272011 	0.69615651
0.0035376884 	-0.025426624 	0.13097675 	0.65904647
0.0035577889 	-0.024909769 	0.13036955 	0.62505318
0.0035778894 	-0.024909769 	0.13036955 	0.62505318
0.0035979899 	-0.024289717 	0.12491929 	0.59654734
0.0036180905 	-0.02390966 	0.11483011 	0.57495729
0.003638191 	-0.023888747 	0.10083574 	0.56030658
0.0036582915 	-0.023888747 	0.10083574 	0.56030658
0.003678392 	-0.024108155 	0.083995725 	0.55122853
0.0036984925 	-0.024286756 	0.065502938 	0.54537727
0.003718593 	-0.024089454 	0.046580312 	0.54000334
0.0037386935 	-0.023223569 	0.028411594 	0.53248868
0.003758794 	-0.02158195 	0.012128411 	0.52071794
0.0037788945 	-0.02158195 	0.012128411 	0.52071794
0.003798995 	-0.019284582 	-0.0012589232 	0.50332407
0.0038190955 	-0.016541307 	-0.010965026 	0.47956538
0.003839196 	-0.013573458 	-0.016616217 	0.44915665
0.0038592965 	-0.010638998 	-0.01833628 	0.41196337
0.003879397 	-0.0079465499 	-0.016725879 	0.3677786
0.0038994975 	-0.0056042329 	-0.012752009 	0.31630737
0.003919598 	-0.0036284773 	-0.0075876412 	0.25738997
0.0039396985 	-0.0020064492 	-0.0024679425 	0.19129087
0.003959799 	-0.0007771591 	0.0013340628 	0.1187792
0.0039798995 	-7.2590521e-05 	0.0022581334 	0.040972963
0.004 	-7.2590521e-05 	0.0022581334 	0.040972963
