0 	-0.013202754 	0.0029096418 	1.1429796
2.0100503e-05 	-0.013202754 	0.0029096418 	1.1429796
4.0201005e-05 	-0.013202754 	0.0029096418 	1.1429796
6.0301508e-05 	-0.015300166 	-0.0093691558 	1.1432149
8.040201e-05 	-0.015300166 	-0.0093691558 	1.1432149
0.00010050251 	-0.015300166 	-0.0093691558 	1.1432149
0.00012060302 	-0.014892613 	-0.01790845 	1.1418502
0.00014070352 	-0.014892613 	-0.01790845 	1.1418502
0.00016080402 	-0.014892613 	-0.01790845 	1.1418502
0.00018090452 	-0.013783531 	-0.025694914 	1.1388935
0.00020100503 	-0.013783531 	-0.025694914 	1.1388935
0.00022110553 	-0.013783531 	-0.025694914 	1.1388935
0.00024120603 	-0.011996756 	-0.033050807 	1.1343154
0.00026130653 	-0.011996756 	-0.033050807 	1.1343154
0.00028140704 	-0.0027458498 	-0.038698718 	1.1242756
0.00030150754 	-0.0027458498 	-0.038698718 	1.1242756
0.00032160804 	-0.0027458498 	-0.038698718 	1.1242756
0.00034170854 	0.00013340663 	-0.044140734 	1.1172609
0.00036180905 	0.00013340663 	-0.044140734 	1.1172609
0.00038190955 	0.00013340663 	-0.044140734 	1.1172609
0.00040201005 	0.0032354799 	-0.048643066 	1.1098589
0.00042211055 	0.0032354799 	-0.048643066 	1.1098589
0.00044221106 	0.0032354799 	-0.048643066 	1.1098589
0.00046231156 	0.0062645062 	-0.052120047 	1.1026524
0.00048241206 	0.0062645062 	-0.052120047 	1.1026524
0.00050251256 	0.0089201476 	-0.054645522 	1.0960704
0.00052261307 	0.0089201476 	-0.054645522 	1.0960704
0.00054271357 	0.0089201476 	-0.054645522 	1.0960704
0.00056281407 	0.010988656 	-0.05629828 	1.0903586
0.00058291457 	0.010988656 	-0.05629828 	1.0903586
0.00060301508 	0.010988656 	-0.05629828 	1.0903586
0.00062311558 	0.012448027 	-0.056955368 	1.0856644
0.00064321608 	0.012448027 	-0.056955368 	1.0856644
0.00066331658 	0.010243143 	-0.058684436 	1.0874786
0.00068341709 	0.012409323 	-0.058221437 	1.0829904
0.00070351759 	0.012409323 	-0.058221437 	1.0829904
0.00072361809 	0.014553885 	-0.056217622 	1.0797353
0.00074371859 	0.014553885 	-0.056217622 	1.0797353
0.0007638191 	0.014553885 	-0.056217622 	1.0797353
0.0007839196 	0.0171771 	-0.052299621 	1.0781905
0.0008040201 	0.0171771 	-0.052299621 	1.0781905
0.0008241206 	0.0171771 	-0.052299621 	1.0781905
0.00084422111 	0.020523477 	-0.046549732 	1.0787971
0.00086432161 	0.020523477 	-0.046549732 	1.0787971
0.00088442211 	0.020523477 	-0.046549732 	1.0787971
0.00090452261 	0.024425417 	-0.039512002 	1.0816138
0.00092462312 	0.024425417 	-0.039512002 	1.0816138
0.00094472362 	0.028482492 	-0.031784475 	1.0862891
0.00096482412 	0.028482492 	-0.031784475 	1.0862891
0.00098492462 	0.028482492 	-0.031784475 	1.0862891
0.0010050251 	0.027374721 	-0.016683384 	1.0986615
0.0010251256 	0.027374721 	-0.016683384 	1.0986615
0.0010452261 	0.027374721 	-0.016683384 	1.0986615
0.0010653266 	0.030243957 	-0.0080832661 	1.1036375
0.0010854271 	0.030243957 	-0.0080832661 	1.1036375
0.0011055276 	0.030243957 	-0.0080832661 	1.1036375
0.0011256281 	0.033014763 	-0.00037175207 	1.1065361
0.0011457286 	0.033014763 	-0.00037175207 	1.1065361
0.0011658291 	0.033014763 	-0.00037175207 	1.1065361
0.0011859296 	0.035466957 	0.0063685948 	1.1072359
0.0012060302 	0.035466957 	0.0063685948 	1.1072359
0.0012261307 	0.035466957 	0.0063685948 	1.1072359
0.0012462312 	0.037577633 	0.012273449 	1.1059971
0.0012663317 	0.037577633 	0.012273449 	1.1059971
0.0012864322 	0.037577633 	0.012273449 	1.1059971
0.0013065327 	0.03926625 	0.017513283 	1.1030279
0.0013266332 	0.03926625 	0.017513283 	1.1030279
0.0013467337 	0.03926625 	0.017513283 	1.1030279
0.0013668342 	0.040343523 	0.022044104 	1.0983248
0.0013869347 	0.040343523 	0.022044104 	1.0983248
0.0014070352 	0.040343523 	0.022044104 	1.0983248
0.0014271357 	0.040691033 	0.025634381 	1.0917725
0.0014472362 	0.040691033 	0.025634381 	1.0917725
0.0014673367 	0.040691033 	0.025634381 	1.0917725
0.0014874372 	0.040350152 	0.027997399 	1.0836365
0.0015075377 	0.040350152 	0.027997399 	1.0836365
0.0015276382 	0.039690192 	0.028853354 	1.07471
0.0015477387 	0.039690192 	0.028853354 	1.07471
0.0015678392 	0.039690192 	0.028853354 	1.07471
0.0015879397 	0.039297991 	0.028099319 	1.0658214
0.0016080402 	0.039297991 	0.028099319 	1.0658214
0.0016281407 	0.039297991 	0.028099319 	1.0658214
0.0016482412 	0.039614469 	0.025983353 	1.0572216
0.0016683417 	0.039614469 	0.025983353 	1.0572216
0.0016884422 	0.040840664 	0.023172172 	1.0487803
0.0017085427 	0.040840664 	0.023172172 	1.0487803
0.0017286432 	0.040840664 	0.023172172 	1.0487803
0.0017487437 	0.04289224 	0.020624371 	1.0404743
0.0017688442 	0.04289224 	0.020624371 	1.0404743
0.0017889447 	0.04289224 	0.020624371 	1.0404743
0.0018090452 	0.045496152 	0.019241903 	1.0324406
0.0018291457 	0.045496152 	0.019241903 	1.0324406
0.0018492462 	0.048333152 	0.019551282 	1.0247648
0.0018693467 	0.048333152 	0.019551282 	1.0247648
0.0018894472 	0.048333152 	0.019551282 	1.0247648
0.0019095477 	0.051076709 	0.02157314 	1.0175346
0.0019296482 	0.051076709 	0.02157314 	1.0175346
0.0019497487 	0.053453681 	0.024973964 	1.0108766
0.0019698492 	0.053453681 	0.024973964 	1.0108766
0.0019899497 	0.055388438 	0.029255898 	1.0048438
0.0020100503 	0.055388438 	0.029255898 	1.0048438
0.0020301508 	0.055388438 	0.029255898 	1.0048438
0.0020502513 	0.056978902 	0.033984585 	0.99938335
0.0020703518 	0.056978902 	0.033984585 	0.99938335
0.0020904523 	0.058302561 	0.038789338 	0.99446133
0.0021105528 	0.058302561 	0.038789338 	0.99446133
0.0021306533 	0.058302561 	0.038789338 	0.99446133
0.0021507538 	0.059355015 	0.043367723 	0.99020854
0.0021708543 	0.059355015 	0.043367723 	0.99020854
0.0021909548 	0.060081724 	0.047427096 	0.9868391
0.0022110553 	0.060081724 	0.047427096 	0.9868391
0.0022311558 	0.060389819 	0.050733753 	0.98447478
0.0022512563 	0.060389819 	0.050733753 	0.98447478
0.0022713568 	0.060138263 	0.053152441 	0.98308843
0.0022914573 	0.060138263 	0.053152441 	0.98308843
0.0023115578 	0.060138263 	0.053152441 	0.98308843
0.0023316583 	0.059234727 	0.054637156 	0.98252653
0.0023517588 	0.059234727 	0.054637156 	0.98252653
0.0023718593 	0.057603241 	0.055262073 	0.9826286
0.0023919598 	0.057603241 	0.055262073 	0.9826286
0.0024120603 	0.055299566 	0.055113232 	0.98327285
0.0024321608 	0.055299566 	0.055113232 	0.98327285
0.0024522613 	0.05238915 	0.054317101 	0.98440326
0.0024723618 	0.05238915 	0.054317101 	0.98440326
0.0024924623 	0.048927315 	0.052942186 	0.98607392
0.0025125628 	0.048927315 	0.052942186 	0.98607392
0.0025326633 	0.044952301 	0.050891851 	0.98839215
0.0025527638 	0.044952301 	0.050891851 	0.98839215
0.0025728643 	0.040475279 	0.048038716 	0.9915224
0.0025929648 	0.040475279 	0.048038716 	0.9915224
0.0026130653 	0.035651583 	0.044275262 	0.99567825
0.0026331658 	0.035651583 	0.044275262 	0.99567825
0.0026532663 	0.030614337 	0.039551734 	1.0010055
0.0026733668 	0.030614337 	0.039551734 	1.0010055
0.0026934673 	0.025402319 	0.033938326 	1.0074937
0.0027135678 	0.025402319 	0.033938326 	1.0074937
0.0027336683 	0.020307104 	0.027583775 	1.0149628
0.0027537688 	0.020307104 	0.027583775 	1.0149628
0.0027738693 	0.015688189 	0.02059213 	1.023053
0.0027939698 	0.015688189 	0.02059213 	1.023053
0.0028140704 	0.011761996 	0.013060616 	1.0312338
0.0028341709 	0.011761996 	0.013060616 	1.0312338
0.0028542714 	0.0087788893 	0.0050476208 	1.0388973
0.0028743719 	0.0068624545 	-0.0033795941 	1.0454095
0.0028944724 	0.0068624545 	-0.0033795941 	1.0454095
0.0029145729 	0.0061361346 	-0.012146642 	1.0501764
0.0029346734 	0.0061361346 	-0.012146642 	1.0501764
0.0029547739 	0.0066913218 	-0.02112639 	1.05274
0.0029748744 	0.0066913218 	-0.02112639 	1.05274
0.0029949749 	0.0085190505 	-0.030173115 	1.0527286
0.0030150754 	0.011615578 	-0.039097256 	1.0498696
0.0030351759 	0.011615578 	-0.039097256 	1.0498696
0.0030552764 	0.015899269 	-0.047698346 	1.0440231
0.0030753769 	0.015899269 	-0.047698346 	1.0440231
0.0030954774 	0.021234574 	-0.055755462 	1.0352235
0.0031155779 	0.027409435 	-0.063052307 	1.0236376
0.0031356784 	0.027409435 	-0.063052307 	1.0236376
0.0031557789 	0.034116638 	-0.069387223 	1.0095813
0.0031758794 	0.034116638 	-0.069387223 	1.0095813
0.0031959799 	0.040992797 	-0.074586993 	0.99351271
0.0032160804 	0.047644909 	-0.078504356 	0.97598432
0.0032361809 	0.047644909 	-0.078504356 	0.97598432
0.0032562814 	0.053690166 	-0.081025225 	0.95759301
0.0032763819 	0.058783782 	-0.082057518 	0.93892647
0.0032964824 	0.058783782 	-0.082057518 	0.93892647
0.0033165829 	0.062644221 	-0.081544666 	0.92051293
0.0033366834 	0.065064873 	-0.079473313 	0.90280276
0.0033567839 	0.065064873 	-0.079473313 	0.90280276
0.0033768844 	0.065918528 	-0.075882238 	0.88617437
0.0033969849 	0.065157703 	-0.070863215 	0.87094867
0.0034170854 	0.065157703 	-0.070863215 	0.87094867
0.0034371859 	0.062806764 	-0.06454246 	0.85743656
0.0034572864 	0.058957376 	-0.057031236 	0.84603361
0.0034773869 	0.053763131 	-0.048335516 	0.83723955
0.0034974874 	0.053763131 	-0.048335516 	0.83723955
0.0035175879 	0.047446232 	-0.038275785 	0.83153274
0.0035376884 	0.040323099 	-0.026473693 	0.82896149
0.0035577889 	0.032844087 	-0.012538803 	0.82870927
0.0035778894 	0.032844087 	-0.012538803 	0.82870927
0.0035979899 	0.025603599 	0.0035950204 	0.82874474
0.0036180905 	0.019399291 	0.021260184 	0.82597229
0.003638191 	0.014769152 	0.038806933 	0.81712482
0.0036582915 	0.014769152 	0.038806933 	0.81712482
0.003678392 	0.011643295 	0.053748461 	0.79992828
0.0036984925 	0.0095564085 	0.063466176 	0.77374514
0.003718593 	0.0078895196 	0.066113967 	0.73897448
0.0037386935 	0.0062169799 	0.061252828 	0.69584983
0.003758794 	0.0044561397 	0.050082594 	0.64402187
0.0037788945 	0.0044561397 	0.050082594 	0.64402187
0.003798995 	0.0027618813 	0.035242525 	0.58337549
0.0038190955 	0.0013327577 	0.02010938 	0.51523296
0.003839196 	0.00028812703 	0.0076263145 	0.44280004
0.0038592965 	-0.00034072463 	-0.00075077295 	0.37037395
0.003879397 	-0.00063323927 	-0.0052108042 	0.30167961
0.0038994975 	-0.00071830124 	-0.0068619976 	0.23863565
0.003919598 	-0.00065684171 	-0.0068326078 	0.18132348
0.0039396985 	-0.00046996596 	-0.0057822961 	0.12855168
0.003959799 	-0.00021544234 	-0.0038972514 	0.078268485
0.0039798995 	-1.9002096e-05 	-0.0012900188 	0.027569157
0.004 	-1.9002096e-05 	-0.0012900188 	0.027569157
