0 	0.018563077 	-0.0032943985 	1.073368
2.0100503e-05 	0.018563077 	-0.0032943985 	1.073368
4.0201005e-05 	0.018563077 	-0.0032943985 	1.073368
6.0301508e-05 	0.013067928 	-0.0013727366 	1.0728954
8.040201e-05 	0.013067928 	-0.0013727366 	1.0728954
0.00010050251 	0.013067928 	-0.0013727366 	1.0728954
0.00012060302 	0.0083778703 	-0.0061431148 	1.0714174
0.00014070352 	0.0083778703 	-0.0061431148 	1.0714174
0.00016080402 	0.0083778703 	-0.0061431148 	1.0714174
0.00018090452 	0.0041253155 	-0.010761298 	1.0697325
0.00020100503 	0.0041253155 	-0.010761298 	1.0697325
0.00022110553 	0.0041253155 	-0.010761298 	1.0697325
0.00024120603 	0.00029221857 	-0.013990706 	1.0679644
0.00026130653 	0.00029221857 	-0.013990706 	1.0679644
0.00028140704 	-0.0029898175 	-0.015829213 	1.0653174
0.00030150754 	-0.0029898175 	-0.015829213 	1.0653174
0.00032160804 	-0.0029898175 	-0.015829213 	1.0653174
0.00034170854 	-0.0057188069 	-0.016969703 	1.0604831
0.00036180905 	-0.0057188069 	-0.016969703 	1.0604831
0.00038190955 	-0.0057188069 	-0.016969703 	1.0604831
0.00040201005 	-0.0080622093 	-0.018292245 	1.0524764
0.00042211055 	-0.0080622093 	-0.018292245 	1.0524764
0.00044221106 	-0.0080622093 	-0.018292245 	1.0524764
0.00046231156 	-0.010274696 	-0.020251738 	1.0413265
0.00048241206 	-0.010274696 	-0.020251738 	1.0413265
0.00050251256 	-0.012601143 	-0.022495007 	1.0282355
0.00052261307 	-0.012601143 	-0.022495007 	1.0282355
0.00054271357 	-0.012601143 	-0.022495007 	1.0282355
0.00056281407 	-0.015221464 	-0.024094209 	1.0152748
0.00058291457 	-0.015221464 	-0.024094209 	1.0152748
0.00060301508 	-0.015221464 	-0.024094209 	1.0152748
0.00062311558 	-0.018335176 	-0.024413842 	1.0047281
0.00064321608 	-0.018335176 	-0.024413842 	1.0047281
0.00066331658 	-0.018335176 	-0.024413842 	1.0047281
0.00068341709 	-0.022315785 	-0.023765302 	0.99769188
0.00070351759 	-0.022315785 	-0.023765302 	0.99769188
0.00072361809 	-0.027790748 	-0.023130748 	0.99199881
0.00074371859 	-0.027790748 	-0.023130748 	0.99199881
0.0007638191 	-0.027790748 	-0.023130748 	0.99199881
0.0007839196 	-0.035482857 	-0.022866179 	0.98196967
0.0008040201 	-0.035482857 	-0.022866179 	0.98196967
0.0008241206 	-0.035482857 	-0.022866179 	0.98196967
0.00084422111 	-0.045189193 	-0.020967737 	0.96306793
0.00086432161 	-0.045189193 	-0.020967737 	0.96306793
0.00088442211 	-0.045189193 	-0.020967737 	0.96306793
0.00090452261 	-0.054645809 	-0.012800001 	0.93858027
0.00092462312 	-0.054645809 	-0.012800001 	0.93858027
0.00094472362 	-0.06101701 	0.0043100788 	0.92009095
0.00096482412 	-0.06101701 	0.0043100788 	0.92009095
0.00098492462 	-0.06101701 	0.0043100788 	0.92009095
0.0010050251 	-0.070758472 	0.02272349 	0.91567104
0.0010251256 	-0.070758472 	0.02272349 	0.91567104
0.0010452261 	-0.070758472 	0.02272349 	0.91567104
0.0010653266 	-0.074133661 	0.041067354 	0.92560315
0.0010854271 	-0.074133661 	0.041067354 	0.92560315
0.0011055276 	-0.074133661 	0.041067354 	0.92560315
0.0011256281 	-0.077040206 	0.052901734 	0.93318721
0.0011457286 	-0.077040206 	0.052901734 	0.93318721
0.0011658291 	-0.077040206 	0.052901734 	0.93318721
0.0011859296 	-0.080417425 	0.062201901 	0.93743932
0.0012060302 	-0.080417425 	0.062201901 	0.93743932
0.0012261307 	-0.080417425 	0.062201901 	0.93743932
0.0012462312 	-0.08493236 	0.070439522 	0.9378917
0.0012663317 	-0.08493236 	0.070439522 	0.9378917
0.0012864322 	-0.08493236 	0.070439522 	0.9378917
0.0013065327 	-0.090064398 	0.077552649 	0.93344499
0.0013266332 	-0.090064398 	0.077552649 	0.93344499
0.0013467337 	-0.090064398 	0.077552649 	0.93344499
0.0013668342 	-0.094850016 	0.082666774 	0.92542479
0.0013869347 	-0.094850016 	0.082666774 	0.92542479
0.0014070352 	-0.094850016 	0.082666774 	0.92542479
0.0014271357 	-0.098374535 	0.084895704 	0.91631695
0.0014472362 	-0.098374535 	0.084895704 	0.91631695
0.0014673367 	-0.098374535 	0.084895704 	0.91631695
0.0014874372 	-0.10022276 	0.084249201 	0.90822394
0.0015075377 	-0.10022276 	0.084249201 	0.90822394
0.0015276382 	-0.10041452 	0.081321341 	0.90240798
0.0015477387 	-0.10041452 	0.081321341 	0.90240798
0.0015678392 	-0.10041452 	0.081321341 	0.90240798
0.0015879397 	-0.099172955 	0.076666019 	0.89942895
0.0016080402 	-0.099172955 	0.076666019 	0.89942895
0.0016281407 	-0.099172955 	0.076666019 	0.89942895
0.0016482412 	-0.096711787 	0.07048071 	0.89938024
0.0016683417 	-0.096711787 	0.07048071 	0.89938024
0.0016884422 	-0.093126988 	0.062635217 	0.90207697
0.0017085427 	-0.093126988 	0.062635217 	0.90207697
0.0017286432 	-0.093126988 	0.062635217 	0.90207697
0.0017487437 	-0.088329182 	0.052835782 	0.90710628
0.0017688442 	-0.088329182 	0.052835782 	0.90710628
0.0017889447 	-0.088329182 	0.052835782 	0.90710628
0.0018090452 	-0.082163152 	0.040926679 	0.91384203
0.0018291457 	-0.082163152 	0.040926679 	0.91384203
0.0018492462 	-0.074543966 	0.027216645 	0.92151737
0.0018693467 	-0.074543966 	0.027216645 	0.92151737
0.0018894472 	-0.074543966 	0.027216645 	0.92151737
0.0019095477 	-0.065552813 	0.012603275 	0.929284
0.0019296482 	-0.065552813 	0.012603275 	0.929284
0.0019497487 	-0.055642391 	-0.0016247907 	0.93635516
0.0019698492 	-0.055642391 	-0.0016247907 	0.93635516
0.0019899497 	-0.055642391 	-0.0016247907 	0.93635516
0.0020100503 	-0.04533033 	-0.014124558 	0.94204493
0.0020301508 	-0.04533033 	-0.014124558 	0.94204493
0.0020502513 	-0.035006127 	-0.023748458 	0.94573152
0.0020703518 	-0.035006127 	-0.023748458 	0.94573152
0.0020904523 	-0.025097006 	-0.029718536 	0.94701792
0.0021105528 	-0.025097006 	-0.029718536 	0.94701792
0.0021306533 	-0.025097006 	-0.029718536 	0.94701792
0.0021507538 	-0.016050122 	-0.031680095 	0.94583922
0.0021708543 	-0.016050122 	-0.031680095 	0.94583922
0.0021909548 	-0.0081736978 	-0.029867899 	0.9424916
0.0022110553 	-0.0081736978 	-0.029867899 	0.9424916
0.0022311558 	-0.0016736475 	-0.025210789 	0.93736871
0.0022512563 	-0.0016736475 	-0.025210789 	0.93736871
0.0022713568 	0.0034496715 	-0.019199164 	0.93065991
0.0022914573 	0.0034496715 	-0.019199164 	0.93065991
0.0023115578 	0.0034496715 	-0.019199164 	0.93065991
0.0023316583 	0.0074956736 	-0.013486877 	0.92224676
0.0023517588 	0.0074956736 	-0.013486877 	0.92224676
0.0023718593 	0.011011303 	-0.0093650795 	0.91184246
0.0023919598 	0.011011303 	-0.0093650795 	0.91184246
0.0024120603 	0.014622041 	-0.0072987931 	0.899352
0.0024321608 	0.014622041 	-0.0072987931 	0.899352
0.0024522613 	0.018781247 	-0.0068588988 	0.8853355
0.0024723618 	0.018781247 	-0.0068588988 	0.8853355
0.0024924623 	0.023595986 	-0.0069645815 	0.87115797
0.0025125628 	0.023595986 	-0.0069645815 	0.87115797
0.0025326633 	0.028826758 	-0.0063905274 	0.85864328
0.0025527638 	0.028826758 	-0.0063905274 	0.85864328
0.0025728643 	0.03403644 	-0.0042364413 	0.84939492
0.0025929648 	0.03403644 	-0.0042364413 	0.84939492
0.0026130653 	0.03877086 	-9.0153368e-05 	0.84435812
0.0026331658 	0.03877086 	-9.0153368e-05 	0.84435812
0.0026532663 	0.042757934 	0.0059917943 	0.8437466
0.0026733668 	0.042757934 	0.0059917943 	0.8437466
0.0026934673 	0.045839206 	0.013674831 	0.84717566
0.0027135678 	0.045839206 	0.013674831 	0.84717566
0.0027336683 	0.047865577 	0.022481282 	0.85378762
0.0027537688 	0.047865577 	0.022481282 	0.85378762
0.0027738693 	0.048774984 	0.031892069 	0.86245626
0.0027939698 	0.048774984 	0.031892069 	0.86245626
0.0028140704 	0.048510816 	0.041374734 	0.87200736
0.0028341709 	0.048510816 	0.041374734 	0.87200736
0.0028542714 	0.047015238 	0.050385149 	0.8814247
0.0028743719 	0.044221681 	0.058367933 	0.89003
0.0028944724 	0.044221681 	0.058367933 	0.89003
0.0029145729 	0.040108412 	0.064772306 	0.89759368
0.0029346734 	0.040108412 	0.064772306 	0.89759368
0.0029547739 	0.034795629 	0.069139109 	0.90428422
0.0029748744 	0.034795629 	0.069139109 	0.90428422
0.0029949749 	0.028618303 	0.071299859 	0.91034686
0.0030150754 	0.022123531 	0.07158636 	0.91566093
0.0030351759 	0.022123531 	0.07158636 	0.91566093
0.0030552764 	0.015935477 	0.070738875 	0.91948746
0.0030753769 	0.015935477 	0.070738875 	0.91948746
0.0030954774 	0.010531783 	0.06937811 	0.9206727
0.0031155779 	0.0060630646 	0.067368542 	0.91788704
0.0031356784 	0.0060630646 	0.067368542 	0.91788704
0.0031557789 	0.0023187435 	0.063658715 	0.90961793
0.0031758794 	0.0023187435 	0.063658715 	0.90961793
0.0031959799 	-0.0011215093 	0.056891179 	0.89436413
0.0032160804 	-0.0046618986 	0.046397379 	0.87141995
0.0032361809 	-0.0046618986 	0.046397379 	0.87141995
0.0032562814 	-0.0084419937 	0.032891947 	0.84152495
0.0032763819 	-0.012237782 	0.01825724 	0.80656449
0.0032964824 	-0.012237782 	0.01825724 	0.80656449
0.0033165829 	-0.01549986 	0.0047284523 	0.76880493
0.0033366834 	-0.017558847 	-0.0058901737 	0.73047801
0.0033567839 	-0.017558847 	-0.0058901737 	0.73047801
0.0033768844 	-0.018152413 	-0.012623673 	0.69383972
0.0033969849 	-0.017377998 	-0.015249108 	0.66078434
0.0034170854 	-0.017377998 	-0.015249108 	0.66078434
0.0034371859 	-0.015861205 	-0.014220185 	0.63217656
0.0034572864 	-0.014565611 	-0.01051688 	0.60733087
0.0034773869 	-0.014187368 	-0.0053139143 	0.58411006
0.0034974874 	-0.014187368 	-0.0053139143 	0.58411006
0.0035175879 	-0.015182223 	0.0003493606 	0.55961613
0.0035376884 	-0.017500803 	0.0058706198 	0.53141333
0.0035577889 	-0.020547629 	0.010929437 	0.4987133
0.0035778894 	-0.020547629 	0.010929437 	0.4987133
0.0035979899 	-0.023447029 	0.015052034 	0.46310733
0.0036180905 	-0.025393697 	0.017307174 	0.42815633
0.003638191 	-0.025813383 	0.0166057 	0.39777667
0.0036582915 	-0.025813383 	0.0166057 	0.39777667
0.003678392 	-0.024731429 	0.012332426 	0.37443973
0.0036984925 	-0.022603149 	0.0047012561 	0.35828516
0.003718593 	-0.019864024 	-0.0053199766 	0.3474775
0.0037386935 	-0.016964259 	-0.016321805 	0.33909505
0.003758794 	-0.014279425 	-0.026846019 	0.33007935
0.0037788945 	-0.014279425 	-0.026846019 	0.33007935
0.003798995 	-0.011973808 	-0.035619752 	0.31777298
0.0038190955 	-0.010043961 	-0.041720732 	0.30027682
0.003839196 	-0.0084252938 	-0.044670112 	0.2765793
0.0038592965 	-0.0070282571 	-0.044469806 	0.24660852
0.003879397 	-0.0057684917 	-0.04154535 	0.21118207
0.0038994975 	-0.0045807036 	-0.036588466 	0.17183791
0.003919598 	-0.003420123 	-0.030325882 	0.1305843
0.0039396985 	-0.0022646387 	-0.023267275 	0.089645
0.003959799 	-0.0011565564 	-0.015453315 	0.051167016
0.0039798995 	-0.00021658522 	-0.0061872639 	0.016470933
0.004 	-0.00021658522 	-0.0061872639 	0.016470933
