0 	0.012992855 	-0.018183739 	1.0980145
2.0100503e-05 	0.012992855 	-0.018183739 	1.0980145
4.0201005e-05 	0.012992855 	-0.018183739 	1.0980145
6.0301508e-05 	0.022242047 	-0.010520463 	1.096296
8.040201e-05 	0.022242047 	-0.010520463 	1.096296
0.00010050251 	0.022242047 	-0.010520463 	1.096296
0.00012060302 	0.025352106 	-0.0076982144 	1.095035
0.00014070352 	0.025352106 	-0.0076982144 	1.095035
0.00016080402 	0.025352106 	-0.0076982144 	1.095035
0.00018090452 	0.026951346 	-0.006454648 	1.0941989
0.00020100503 	0.026951346 	-0.006454648 	1.0941989
0.00022110553 	0.026951346 	-0.006454648 	1.0941989
0.00024120603 	0.027383108 	-0.0060753711 	1.0936796
0.00026130653 	0.027383108 	-0.0060753711 	1.0936796
0.00028140704 	0.026687475 	-0.0064201657 	1.0933103
0.00030150754 	0.026687475 	-0.0064201657 	1.0933103
0.00032160804 	0.026687475 	-0.0064201657 	1.0933103
0.00034170854 	0.024987785 	-0.0074804442 	1.0928786
0.00036180905 	0.024987785 	-0.0074804442 	1.0928786
0.00038190955 	0.024987785 	-0.0074804442 	1.0928786
0.00040201005 	0.022568434 	-0.009252672 	1.0921627
0.00042211055 	0.022568434 	-0.009252672 	1.0921627
0.00044221106 	0.022568434 	-0.009252672 	1.0921627
0.00046231156 	0.019851073 	-0.011699006 	1.0910019
0.00048241206 	0.019851073 	-0.011699006 	1.0910019
0.00050251256 	0.017309307 	-0.014745099 	1.0893664
0.00052261307 	0.017309307 	-0.014745099 	1.0893664
0.00054271357 	0.017309307 	-0.014745099 	1.0893664
0.00056281407 	0.015372142 	-0.018255258 	1.0873552
0.00058291457 	0.015372142 	-0.018255258 	1.0873552
0.00060301508 	0.015372142 	-0.018255258 	1.0873552
0.00062311558 	0.014335289 	-0.022028292 	1.0851215
0.00064321608 	0.014335289 	-0.022028292 	1.0851215
0.00066331658 	0.014335289 	-0.022028292 	1.0851215
0.00068341709 	0.014345486 	-0.02584519 	1.0827841
0.00070351759 	0.014345486 	-0.02584519 	1.0827841
0.00072361809 	0.015416985 	-0.0294877 	1.0803966
0.00074371859 	0.015416985 	-0.0294877 	1.0803966
0.0007638191 	0.015416985 	-0.0294877 	1.0803966
0.0007839196 	0.017457593 	-0.032795957 	1.0779593
0.0008040201 	0.017457593 	-0.032795957 	1.0779593
0.0008241206 	0.017457593 	-0.032795957 	1.0779593
0.00084422111 	0.020371472 	-0.03569701 	1.0754502
0.00086432161 	0.020371472 	-0.03569701 	1.0754502
0.00088442211 	0.020371472 	-0.03569701 	1.0754502
0.00090452261 	0.023946627 	-0.038113632 	1.0728742
0.00092462312 	0.023946627 	-0.038113632 	1.0728742
0.00094472362 	0.028111815 	-0.040146129 	1.0703799
0.00096482412 	0.028111815 	-0.040146129 	1.0703799
0.00098492462 	0.028111815 	-0.040146129 	1.0703799
0.0010050251 	0.034808836 	-0.02802723 	1.0815368
0.0010251256 	0.034808836 	-0.02802723 	1.0815368
0.0010452261 	0.034808836 	-0.02802723 	1.0815368
0.0010653266 	0.040716764 	-0.028800539 	1.07968
0.0010854271 	0.040716764 	-0.028800539 	1.07968
0.0011055276 	0.040716764 	-0.028800539 	1.07968
0.0011256281 	0.047094576 	-0.029582307 	1.0776956
0.0011457286 	0.047094576 	-0.029582307 	1.0776956
0.0011658291 	0.047094576 	-0.029582307 	1.0776956
0.0011859296 	0.05370087 	-0.030536006 	1.0755581
0.0012060302 	0.05370087 	-0.030536006 	1.0755581
0.0012261307 	0.05370087 	-0.030536006 	1.0755581
0.0012462312 	0.060376012 	-0.031716011 	1.0732868
0.0012663317 	0.060376012 	-0.031716011 	1.0732868
0.0012864322 	0.060376012 	-0.031716011 	1.0732868
0.0013065327 	0.066974352 	-0.033099744 	1.0709214
0.0013266332 	0.066974352 	-0.033099744 	1.0709214
0.0013467337 	0.066974352 	-0.033099744 	1.0709214
0.0013668342 	0.07340149 	-0.034561743 	1.0685462
0.0013869347 	0.07340149 	-0.034561743 	1.0685462
0.0014070352 	0.07340149 	-0.034561743 	1.0685462
0.0014271357 	0.079630944 	-0.03585518 	1.0662994
0.0014472362 	0.079630944 	-0.03585518 	1.0662994
0.0014673367 	0.079630944 	-0.03585518 	1.0662994
0.0014874372 	0.085674569 	-0.036662767 	1.0643397
0.0015075377 	0.085674569 	-0.036662767 	1.0643397
0.0015276382 	0.091537014 	-0.036635033 	1.0628157
0.0015477387 	0.091537014 	-0.036635033 	1.0628157
0.0015678392 	0.091537014 	-0.036635033 	1.0628157
0.0015879397 	0.097183607 	-0.035485161 	1.0618583
0.0016080402 	0.097183607 	-0.035485161 	1.0618583
0.0016281407 	0.097183607 	-0.035485161 	1.0618583
0.0016482412 	0.10250494 	-0.033060986 	1.0615533
0.0016683417 	0.10250494 	-0.033060986 	1.0615533
0.0016884422 	0.10743948 	-0.029386275 	1.0617867
0.0017085427 	0.10743948 	-0.029386275 	1.0617867
0.0017286432 	0.10743948 	-0.029386275 	1.0617867
0.0017487437 	0.11197097 	-0.024449758 	1.0620679
0.0017688442 	0.11197097 	-0.024449758 	1.0620679
0.0017889447 	0.11197097 	-0.024449758 	1.0620679
0.0018090452 	0.11624391 	-0.018211495 	1.0615663
0.0018291457 	0.11624391 	-0.018211495 	1.0615663
0.0018492462 	0.12036094 	-0.010745945 	1.0594903
0.0018693467 	0.12036094 	-0.010745945 	1.0594903
0.0018894472 	0.12036094 	-0.010745945 	1.0594903
0.0019095477 	0.12394381 	-0.0025750608 	1.0555023
0.0019296482 	0.12394381 	-0.0025750608 	1.0555023
0.0019497487 	0.1263297 	0.005553436 	1.0499479
0.0019698492 	0.1263297 	0.005553436 	1.0499479
0.0019899497 	0.1263297 	0.005553436 	1.0499479
0.0020100503 	0.12681958 	0.013222063 	1.0438636
0.0020301508 	0.12681958 	0.013222063 	1.0438636
0.0020502513 	0.1249193 	0.020321997 	1.0385514
0.0020703518 	0.1249193 	0.020321997 	1.0385514
0.0020904523 	0.12037412 	0.026443646 	1.0346989
0.0021105528 	0.12037412 	0.026443646 	1.0346989
0.0021306533 	0.12037412 	0.026443646 	1.0346989
0.0021507538 	0.11329756 	0.030509138 	1.0316685
0.0021708543 	0.11329756 	0.030509138 	1.0316685
0.0021909548 	0.104486 	0.031488174 	1.027557
0.0022110553 	0.104486 	0.031488174 	1.027557
0.0022311558 	0.095355654 	0.029509928 	1.0203249
0.0022512563 	0.095355654 	0.029509928 	1.0203249
0.0022713568 	0.087413095 	0.026185424 	1.0091148
0.0022914573 	0.087413095 	0.026185424 	1.0091148
0.0023115578 	0.087413095 	0.026185424 	1.0091148
0.0023316583 	0.08158284 	0.02399673 	0.99469925
0.0023517588 	0.08158284 	0.02399673 	0.99469925
0.0023718593 	0.077886016 	0.025140779 	0.97904249
0.0023919598 	0.077886016 	0.025140779 	0.97904249
0.0024120603 	0.075653049 	0.03051383 	0.96459288
0.0024321608 	0.075653049 	0.03051383 	0.96459288
0.0024522613 	0.073932094 	0.03912337 	0.95354322
0.0024723618 	0.073932094 	0.03912337 	0.95354322
0.0024924623 	0.071838807 	0.048340394 	0.94698217
0.0025125628 	0.071838807 	0.048340394 	0.94698217
0.0025326633 	0.068970409 	0.055513328 	0.94335282
0.0025527638 	0.068970409 	0.055513328 	0.94335282
0.0025728643 	0.065991766 	0.059702819 	0.93676509
0.0025929648 	0.065991766 	0.059702819 	0.93676509
0.0026130653 	0.06443222 	0.061152362 	0.92005749
0.0026331658 	0.06443222 	0.061152362 	0.92005749
0.0026532663 	0.065089508 	0.059666657 	0.8926081
0.0026733668 	0.065089508 	0.059666657 	0.8926081
0.0026934673 	0.066999709 	0.054966454 	0.86257337
0.0027135678 	0.066999709 	0.054966454 	0.86257337
0.0027336683 	0.068392846 	0.047830124 	0.83979854
0.0027537688 	0.068392846 	0.047830124 	0.83979854
0.0027738693 	0.068183996 	0.039757003 	0.82891565
0.0027939698 	0.068183996 	0.039757003 	0.82891565
0.0028140704 	0.066301019 	0.031740186 	0.82881184
0.0028341709 	0.066301019 	0.031740186 	0.82881184
0.0028542714 	0.063068183 	0.023894624 	0.83590981
0.0028743719 	0.058869983 	0.015880784 	0.84689826
0.0028944724 	0.058869983 	0.015880784 	0.84689826
0.0029145729 	0.054136485 	0.0074145336 	0.85942143
0.0029346734 	0.054136485 	0.0074145336 	0.85942143
0.0029547739 	0.049386015 	-0.0014574053 	0.87174636
0.0029748744 	0.049386015 	-0.0014574053 	0.87174636
0.0029949749 	0.045021753 	-0.010251993 	0.88259109
0.0030150754 	0.041057298 	-0.018389715 	0.8912705
0.0030351759 	0.041057298 	-0.018389715 	0.8912705
0.0030552764 	0.037522503 	-0.025468369 	0.8975828
0.0030753769 	0.037522503 	-0.025468369 	0.8975828
0.0030954774 	0.034439056 	-0.031270579 	0.90163875
0.0031155779 	0.031977603 	-0.035648542 	0.90336803
0.0031356784 	0.031977603 	-0.035648542 	0.90336803
0.0031557789 	0.030421958 	-0.038473411 	0.90231836
0.0031758794 	0.030421958 	-0.038473411 	0.90231836
0.0031959799 	0.03012622 	-0.039715967 	0.89780804
0.0032160804 	0.031346523 	-0.039547147 	0.8892034
0.0032361809 	0.031346523 	-0.039547147 	0.8892034
0.0032562814 	0.03419464 	-0.038329827 	0.87620843
0.0032763819 	0.038612052 	-0.036517413 	0.85885456
0.0032964824 	0.038612052 	-0.036517413 	0.85885456
0.0033165829 	0.044344485 	-0.034487194 	0.83749019
0.0033366834 	0.050983718 	-0.03250483 	0.81269171
0.0033567839 	0.050983718 	-0.03250483 	0.81269171
0.0033768844 	0.057927696 	-0.030708729 	0.78517621
0.0033969849 	0.064465143 	-0.029221219 	0.75581393
0.0034170854 	0.064465143 	-0.029221219 	0.75581393
0.0034371859 	0.06984038 	-0.028233534 	0.72565685
0.0034572864 	0.073335073 	-0.028060368 	0.69591672
0.0034773869 	0.074377008 	-0.0291391 	0.66781182
0.0034974874 	0.074377008 	-0.0291391 	0.66781182
0.0035175879 	0.072641544 	-0.031974419 	0.64227738
0.0035376884 	0.068120631 	-0.037000195 	0.61962417
0.0035577889 	0.061136156 	-0.044348361 	0.59930379
0.0035778894 	0.061136156 	-0.044348361 	0.59930379
0.0035979899 	0.052277194 	-0.053601266 	0.5799657
0.0036180905 	0.042281458 	-0.063705638 	0.55986236
0.003638191 	0.031930423 	-0.073205385 	0.537437
0.0036582915 	0.031930423 	-0.073205385 	0.537437
0.003678392 	0.022012869 	-0.080745369 	0.51175467
0.0036984925 	0.013312101 	-0.085532624 	0.48251148
0.003718593 	0.0064994196 	-0.087420887 	0.44972718
0.0037386935 	0.0020312947 	-0.086614389 	0.41356024
0.003758794 	-0.00013144891 	-0.083387182 	0.374516
0.0037788945 	-0.00013144891 	-0.083387182 	0.374516
0.003798995 	-0.00054451598 	-0.078085948 	0.33368164
0.0038190955 	5.3179398e-05 	-0.07124321 	0.29251885
0.003839196 	0.0010035078 	-0.063550396 	0.25232626
0.0038592965 	0.0018337082 	-0.055682552 	0.21384278
0.003879397 	0.0022839961 	-0.048123775 	0.17721174
0.0038994975 	0.0023027413 	-0.041058199 	0.14214879
0.003919598 	0.0019375746 	-0.034298802 	0.10816646
0.0039396985 	0.0013093101 	-0.02721804 	0.074851587
0.003959799 	0.0006070726 	-0.01871992 	0.042328307
0.0039798995 	7.2679901e-05 	-0.007441116 	0.012063208
0.004 	7.2679901e-05 	-0.007441116 	0.012063208
