0 	-0.021032048 	-0.048262853 	0.98930144
5.5555556e-05 	0.0021481118 	-0.054002223 	0.98462344
0.00011111111 	0.0092788486 	-0.055264486 	0.9823335
0.00016666667 	0.01352774 	-0.056635938 	0.98290221
0.00022222222 	0.016936676 	-0.057779995 	0.98630625
0.00027777778 	0.01993514 	-0.058300397 	0.9921413
0.00033333333 	0.022604534 	-0.057940211 	0.99980246
0.00038888889 	0.024967666 	-0.056613533 	1.0086428
0.00044444444 	0.02705402 	-0.05436794 	1.0180783
0.0005 	0.028899838 	-0.051322159 	1.0276425
0.00055555556 	0.030539696 	-0.047625395 	1.0369998
0.00061111111 	0.031998953 	-0.043437526 	1.0459303
0.00066666667 	0.033294526 	-0.038929352 	1.0542904
0.00072222222 	0.034439742 	-0.034285037 	1.0619693
0.00077777778 	0.035454472 	-0.029688407 	1.0688653
0.00083333333 	0.036365516 	-0.025313961 	1.0748852
0.00088888889 	0.037189284 	-0.021283822 	1.0799629
0.00094444444 	0.038027143 	-0.017743681 	1.0840083
0.001 	0.038809688 	-0.014480397 	1.0875816
0.0010617199 	0.039619901 	-0.011931327 	1.0903438
0.0011225874 	0.040615116 	-0.010039517 	1.0921998
0.0011826143 	0.041765384 	-0.008803577 	1.0932883
0.0012418122 	0.043079474 	-0.0081447505 	1.0937321
0.0013001926 	0.044557498 	-0.0079549806 	1.0936202
0.0013577668 	0.04615615 	-0.0081310823 	1.0930287
0.0014145458 	0.047823146 	-0.0085741894 	1.0920286
0.0014705407 	0.049499611 	-0.0092036853 	1.0906868
0.0015257623 	0.051122113 	-0.0099696014 	1.0890617
0.0015802213 	0.052630809 	-0.010858355 	1.0872001
0.0016339282 	0.053968197 	-0.011898517 	1.0851217
0.0016868934 	0.055062449 	-0.013157148 	1.0828004
0.0017391271 	0.055826056 	-0.014735783 	1.0801782
0.0017906395 	0.056151185 	-0.016741095 	1.0771395
0.0018414404 	0.055918991 	-0.01924107 	1.0735335
0.0018915398 	0.055021992 	-0.022222631 	1.0692024
0.0019409473 	0.053396322 	-0.025574447 	1.0640256
0.0019896725 	0.051055104 	-0.029095826 	1.0579674
0.0020377248 	0.048080086 	-0.03254534 	1.0511387
0.0020851134 	0.044589897 	-0.035704613 	1.0438149
0.0021318476 	0.04071632 	-0.038434007 	1.0363836
0.0021779364 	0.03660059 	-0.040676526 	1.0292315
0.0022233887 	0.032396484 	-0.042412254 	1.0226466
0.0022682133 	0.028273768 	-0.043570033 	1.0167918
0.0023124189 	0.024427656 	-0.04397948 	1.0117374
0.0023560139 	0.021060973 	-0.043392988 	1.0074812
0.0023990069 	0.018379447 	-0.041630922 	1.0038748
0.0024414062 	0.016595698 	-0.038715396 	1.0005386
0.0024832199 	0.015895456 	-0.034911841 	0.99692339
0.0025244562 	0.016384657 	-0.030661674 	0.99259008
0.002565123 	0.017990743 	-0.026471223 	0.98749107
0.0026052281 	0.020435696 	-0.022824545 	0.9820221
0.0026447794 	0.023328371 	-0.020116928 	0.97680891
0.0026837845 	0.026275758 	-0.018602563 	0.97244098
0.0027222509 	0.028941469 	-0.018368311 	0.96929428
0.0027601861 	0.031064941 	-0.019337312 	0.96746764
0.0027975974 	0.032472823 	-0.021285233 	0.96674495
0.002834492 	0.033107378 	-0.023856374 	0.96660653
0.0028708772 	0.033026534 	-0.02664142 	0.96627275
0.0029067598 	0.032403248 	-0.029278178 	0.96489736
0.0029421469 	0.031457309 	-0.031516008 	0.96181215
0.0029770452 	0.030385129 	-0.03322455 	0.9567732
0.0030114616 	0.029306233 	-0.034369887 	0.95009321
0.0030454028 	0.028261596 	-0.034982151 	0.94259705
0.0030788752 	0.02722636 	-0.035127119 	0.93540618
0.0031118853 	0.02614624 	-0.034891843 	0.9296455
0.0031444395 	0.024978023 	-0.034375523 	0.92617825
0.0031765442 	0.02369511 	-0.033683491 	0.92544507
0.0032082055 	0.022298158 	-0.032934363 	0.92742535
0.0032394295 	0.020812077 	-0.0322682 	0.93169445
0.0032702223 	0.019275215 	-0.031847024 	0.93753709
0.0033005899 	0.017735104 	-0.031846987 	0.94407824
0.0033305381 	0.016251991 	-0.032435566 	0.95039535
0.0033600727 	0.014896785 	-0.033735194 	0.95559046
0.0033891994 	0.013743819 	-0.035765672 	0.95882441
0.0034179239 	0.012859395 	-0.038412156 	0.95933226
0.0034462517 	0.012284697 	-0.041416845 	0.95644714
0.0034741882 	0.012020231 	-0.044403365 	0.94964754
0.003501739 	0.012017508 	-0.04693114 	0.93862156
0.0035289093 	0.012182725 	-0.04856532 	0.92332097
0.0035557043 	0.01239409 	-0.048951395 	0.90397228
0.0035821293 	0.012529327 	-0.047889955 	0.88102684
0.0036081894 	0.012493819 	-0.045406506 	0.85505718
0.0036338895 	0.012237559 	-0.041799068 	0.82663074
0.0036592348 	0.011754313 	-0.037629007 	0.79619788
0.00368423 	0.011066195 	-0.033619293 	0.76401494
0.00370888 	0.010206052 	-0.030453352 	0.73009586
0.0037331896 	0.0092086522 	-0.028521076 	0.69417262
0.0037571635 	0.008111961 	-0.02771182 	0.65566086
0.0037808063 	0.006960701 	-0.027374535 	0.61366804
0.0038041226 	0.0058042206 	-0.026521859 	0.5671062
0.0038271169 	0.0046885216 	-0.024244265 	0.51493751
0.0038497936 	0.0036491031 	-0.020167107 	0.45650509
0.0038721572 	0.0027104751 	-0.014710765 	0.39186302
0.0038942119 	0.0018883202 	-0.0089719216 	0.3220177
0.003915962 	0.0011896692 	-0.0042417763 	0.24892912
0.0039374118 	0.00062385547 	-0.0014064288 	0.17509042
0.0039585653 	0.00021746995 	-0.00051926063 	0.10275654
0.0039794267 	1.4111054e-05 	-0.00059465585 	0.033297286
0.004 	2.8027162e-05 	-0.0027698428 	0.027828053
