0.5000000000000003	0.0019131660133393587	0.10619336873134894	0.20531224991424893
0.49742875625000194	0.0018598213950817854	0.0987841366884261	0.2054974553100919
0.49482149687500077	0.014033114307985966	0.24827650756276368	0.618273838784937
0.49217771875000144	0.034215792224846844	0.3644973202093998	1.0348603551220217
0.4894969062499981	0.05988955038420877	0.4549192309457629	1.4437191211320246
0.48677854687499983	0.08931365869152223	0.5253430132915665	1.8267140278668061
0.48402210937500056	0.1217612271565961	0.581351406652997	2.163135706295704
0.48122705937499843	0.157123702224084	0.6289723305374181	2.437377395669625
0.47839286562500044	0.19517433138335788	0.6737239266077183	2.6463536301968125
0.4755189656249995	0.23499453620569877	0.7191365086463714	2.796867977643528
0.47260480937499916	0.2755524652303142	0.7663817730672033	2.896980955049966
0.46964983750000083	0.31655041472007545	0.8141672088448891	2.9523833769978243
0.4666534749999997	0.3583882405157546	0.859678060170943	2.9690348559793596
0.4636151437500017	0.4013111735493176	0.901408991771465	2.9560870521390203
0.460534253124999	0.44477689177395197	0.9405783257669298	2.9243858256086335
0.45741020937500093	0.4880747161431189	0.9789009582120498	2.882859425089831
0.4542424000000002	0.5308460398111435	1.0147181128745706	2.836776865914513
0.45103022812499977	0.5728554002316716	1.0422402746003352	2.7870802526449134
0.4477730562500009	0.6140300760829063	1.0574331149444807	2.7299072000259694
0.44447025937500095	0.6547030673979527	1.0654895707603982	2.6603882492036504
0.441121206249999	0.6953712656264247	1.0781036047895867	2.5795165046266435
0.43772524062499985	0.7361849143658934	1.101201885274039	2.494590794070815
0.43428169999999944	0.7761188901918811	1.1305003998968128	2.4104259619943056
0.43078993437500107	0.8132192923391506	1.1587424920344997	2.324079963788651
0.42724925312500034	0.8457765587685413	1.1811621316438494	2.2311659737664367
0.42365897499999994	0.8728698723256041	1.1954108583601093	2.1327309619313217
0.4200184156249997	0.8944907037386886	1.2011227700771945	2.033264821552059
0.4163268562499999	0.9115064026885764	1.200785192319571	1.9370303567578249
0.4125835906249998	0.9253383655887477	1.199238579868061	1.8487462158311843
0.408787890625	0.937255867499469	1.2005213770075094	1.7725860491611447
0.404939028125	0.9479555052340093	1.204915169388446	1.7080095913312725
0.4010362531249997	0.9574939588179964	1.2114852894740413	1.652392577335795
0.3970788062500005	0.9658237800647397	1.2234043254877152	1.6074490537724633
0.39306592812500063	0.9727795251755066	1.2446729415134066	1.5760485556360877
0.38899684687499964	0.9769717968470564	1.2706022433525863	1.5557228486607395
0.3848707656249999	0.9763119670039564	1.2895730011467774	1.5426595196431534
0.3806868874999992	0.9695301509153124	1.2950358136363038	1.539040041332852
0.37644440312499916	0.9566168390628249	1.2878609776796741	1.5479105640733857
0.3721424968749993	0.9385922270250667	1.271667490887033	1.5656349206943894
0.36778033749999917	0.9170434532558209	1.2504107554242783	1.5860369433396955
0.36335707500000036	0.8943990047729982	1.22785562312413	1.6057226800058775
0.3588718499999999	0.8733146726060788	1.2069667580730445	1.6223135713507835
0.3543238000000003	0.8559899321602462	1.1888775284688977	1.6319772366203367
0.34971204687499996	0.8442941017523425	1.1732097168215458	1.629898429750079
0.34503569687500074	0.8395549681184634	1.15982582421706	1.6141034739166065
0.3402938437500005	0.8420882736225613	1.1499287030033873	1.5879177153074155
0.33548557187500094	0.850792631620048	1.1431838640872927	1.557806261376037
0.33060994687499945	0.8633910873548908	1.1345583759370255	1.529961766683055
0.32566603124999943	0.8775860686975849	1.115569267390969	1.508054767109938
0.3206528687500002	0.8915797046097284	1.081750129618208	1.4959798075888744
0.31556948125000117	0.904042062068986	1.0418890014399358	1.4971571583999501
0.3104148874999999	0.9140357785189027	1.0123527368856131	1.5068627213689572
0.3051880968750001	0.9214505443731466	1.003530970418213	1.5167158913694292
0.29988809062500027	0.9266179284725206	1.0151503085478013	1.5214476788508051
0.2945138468749994	0.9293007551655342	1.0403699240194362	1.5196810186366752
0.28906433437500006	0.9294037564143318	1.0694092070220078	1.513142866096521
0.2835384781249999	0.9279118251729531	1.0910895108084262	1.5054620612810956
0.27793522187500025	0.9265043020973058	1.0975350164207132	1.4988573226125426
0.2722534843750002	0.9262833659793244	1.0887791751692377	1.491845547518256
0.26649215624999945	0.9268674984250499	1.0695828652088792	1.4817053015234292
0.26065013437499934	0.9270662719372974	1.0435500951714187	1.467986035125297
0.2547262812499995	0.9259049817458207	1.0147200994150263	1.4530916282849637
0.24871944687499994	0.922894771904426	0.989381691341066	1.4401736799849796
0.24262847812499932	0.9176188888068423	0.971568678254146	1.430768685948071
0.23645219062500059	0.909170669947653	0.9596057260395549	1.4233905040341452
0.23018939062499996	0.8964482053354039	0.9493208233900232	1.4144867646608448
0.22383886874999995	0.879821119859195	0.9371939486412092	1.4014350856918643
0.2173993906249998	0.8625826142479995	0.9208807129682609	1.3841231821893665
0.21086971874999982	0.8477197439766717	0.9009947122506865	1.3632883900379817
0.20424858125000028	0.834752808549542	0.8813209706296375	1.3396454682595327
0.1975346999999993	0.8224342170827006	0.8648899460136884	1.3144994034352406
0.19072677203125016	0.8112832641266244	0.852448580206803	1.2897456190324939
0.18382349062500009	0.8013990999655904	0.8429070867883798	1.2655967327711461
0.1768235124999999	0.7906532842187405	0.8351575392451757	1.2400215960073693
0.1697254874999997	0.776087505854096	0.82987899779247	1.2129911389474877
0.16252803125000032	0.7563664250264746	0.8280619710582988	1.187204197023767
0.15522976562500024	0.7334322902547897	0.8290814888191753	1.1630891375558867
0.14782927187500008	0.7109516997059665	0.8304439307024364	1.1400739026874291
0.14032511875000012	0.6922039509881106	0.8282855308190564	1.1196457024753552
0.13271585312499953	0.6783139867074074	0.8195175074419239	1.1019837487719657
0.12500000000000008	0.6707010384701051	0.8052175077734571	1.0802898103380254
0.11805555499999976	0.6669674123901198	0.7889496106685843	1.0507945631589042
0.1111111112499997	0.6635507366400066	0.7740254478394011	1.0290153950186909
0.1041666662500002	0.6568712753365304	0.7593453393802713	1.0217795913189072
0.09722222250000022	0.6466726537749764	0.7435629877347486	1.0185958941299642
0.09027777749999989	0.6331895995785872	0.7247144497039958	1.0118072477491256
0.0833333337499999	0.6183747213431912	0.7031733888823374	1.0004073421454445
0.07638888875000027	0.6042071257579974	0.680944148505107	0.985530329012165
0.06944444500000004	0.5914301828949693	0.6597913976420906	0.9689560842051995
0.06250000000000004	0.5797708851669745	0.6411862771105447	0.9523727215721854
0.05555555499999981	0.5687024403654437	0.6258774507783166	0.9374976343363433
0.04861111125000011	0.5583371178171659	0.6130971326176132	0.9256346611017957
0.041666666249999915	0.5494712716772593	0.601120266972723	0.916456495783604
0.03472222250000002	0.5423809632749981	0.5881279519956913	0.9089115778903912
0.027777777499999906	0.536752461986256	0.573924121844738	0.9020114834864111
0.02083333374999994	0.5324880553700909	0.5604119511705691	0.8948378212386607
0.013888888749999953	0.5297271495738864	0.5496361143313374	0.8871979348372968
0.006944446656250006	0.5285886879393799	0.5421079687693258	0.880235557265312
0.0	0.4684421303288712	0.5894909768247318	0.8587847129486583
