0.5000000000000003	0.0016410274027435442	0.0848535859900252	0.20808668743648412
0.49742875625000194	0.0017944696108381135	0.08665762443750419	0.18613535299224981
0.49482149687500077	0.014594692928643705	0.2294828010014377	0.5583678237873799
0.49217771875000144	0.036227702297305917	0.3503764716855281	0.9302781355723273
0.4894969062499981	0.06357587084069309	0.4529979999836199	1.2903625943271728
0.48677854687499983	0.09411034455513835	0.5410960874862896	1.6252847461935425
0.48402210937500056	0.12618847620107893	0.6176259924717619	1.9245023598642157
0.48122705937499843	0.15844845004352962	0.6828714556999437	2.1808914041178644
0.47839286562500044	0.18977949683235554	0.7356605405204014	2.390961516872337
0.4755189656249995	0.21964916407625765	0.7764130422836226	2.5552777702110885
0.47260480937499916	0.2479769733212649	0.8068284884678328	2.676428233487274
0.46964983750000083	0.2751957984786677	0.8273509031662273	2.7569915758133545
0.4666534749999997	0.30236805090357544	0.8371895497918891	2.800030670498842
0.4636151437500017	0.3301335790872571	0.83674696041185	2.810273085785178
0.460534253124999	0.35830241632607374	0.8299457756011445	2.7941823749428267
0.45741020937500093	0.38709685548650974	0.8241146552531305	2.7590224635892815
0.4542424000000002	0.41740162165429157	0.8274080840074864	2.7128545229396757
0.45103022812499977	0.44993204051355495	0.8453957022815839	2.6653644493655033
0.4477730562500009	0.48448606183287646	0.8782264080008485	2.625262887349826
0.44447025937500095	0.5195810583215815	0.9204146705967693	2.5944680741875144
0.441121206249999	0.5531486404745324	0.9638560288584688	2.5670963518689653
0.43772524062499985	0.5839110761922621	1.0018778050351391	2.536808099471419
0.43428169999999944	0.6121958492548015	1.0319844803684917	2.5033955778102963
0.43078993437500107	0.639790121580612	1.0560707886032192	2.471518733560805
0.42724925312500034	0.6688704841044827	1.0782832675390872	2.4454558722869932
0.42365897499999994	0.7007021804069766	1.1020255334302869	2.425906205879118
0.4200184156249997	0.7348606582944434	1.1272246588361654	2.4092438050375677
0.4163268562499999	0.7695923657052685	1.149940203599028	2.3903428016054478
0.4125835906249998	0.8026792578783694	1.165146933427895	2.3677107189814155
0.408787890625	0.8324816524919139	1.1707475295897023	2.3432990318740137
0.404939028125	0.8583040180989066	1.1694149274813663	2.3181845860160917
0.4010362531249997	0.8800853317408998	1.1663013466660956	2.291820329716129
0.3970788062500005	0.8983014948709451	1.1654166101435566	2.2627853355021434
0.39306592812500063	0.9133436479807472	1.1681878764413498	2.2299541618875605
0.38899684687499964	0.9250654053336648	1.17415029479031	2.1942204442419695
0.3848707656249999	0.9333184306963322	1.1817147249668876	2.1581274195742757
0.3806868874999992	0.9387829996430207	1.1882592905085787	2.124494822397718
0.37644440312499916	0.9428952863923313	1.1911951666483707	2.0955626335671393
0.3721424968749993	0.9468496268546341	1.1897051462711297	2.0706081680948336
0.36778033749999917	0.950851843196734	1.1851063252720688	2.0436253257324015
0.36335707500000036	0.9541795847738871	1.1796446714769944	2.0070067887822964
0.3588718499999999	0.9560361974737529	1.1748371451584627	1.9595177886688033
0.3543238000000003	0.9562253724051368	1.1702864188010218	1.9075254856883261
0.34971204687499996	0.954781458582304	1.1644674643837147	1.8560570489532853
0.34503569687500074	0.9518943351947489	1.1571657974625393	1.8031407890737454
0.3402938437500005	0.9484540664684442	1.1504765316663983	1.7455528354523007
0.33548557187500094	0.9460518978257545	1.147036918828927	1.6843767006878223
0.33060994687499945	0.9456594969694729	1.1481926444768904	1.6254086947228497
0.32566603124999943	0.9470048564258845	1.1545358669230645	1.5770749469184677
0.3206528687500002	0.94987904268927	1.1665897316448965	1.5448640358110706
0.31556948125000117	0.954672500978979	1.1834568841602788	1.5263920390425096
0.3104148874999999	0.9614516889219811	1.2021031405423181	1.514986517781732
0.3051880968750001	0.9693474668523911	1.2193503161106032	1.506010497392498
0.29988809062500027	0.9771067596879774	1.2327673558069139	1.4980192130583994
0.2945138468749994	0.9830595827163523	1.238951256033414	1.4907089566008225
0.28906433437500006	0.9854236543343249	1.2336458253226807	1.4818769080084682
0.2835384781249999	0.9841673610259702	1.2165714055568349	1.4680509043376642
0.27793522187500025	0.9807822430240438	1.1920102437001798	1.4493988064911403
0.2722534843750002	0.9764379606213697	1.16372463041681	1.4295097725461077
0.26649215624999945	0.971308287674292	1.131344019402914	1.411653026109163
0.26065013437499934	0.9655271759520996	1.0926696380985739	1.3995011648819147
0.2547262812499995	0.9596564712559724	1.0494850153293498	1.3955725940088277
0.24871944687499994	0.9543095062475524	1.0116161302433062	1.3944954867127934
0.24262847812499932	0.9496056173887903	0.9883352348280451	1.3884230786887408
0.23645219062500059	0.9441034479590831	0.9749977226452752	1.379469766954803
0.23018939062499996	0.9361005756902249	0.9613799177468518	1.3732690121381252
0.22383886874999995	0.9260772268249088	0.9462890564384554	1.3738938964293066
0.2173993906249998	0.915897118315892	0.9327943479572164	1.3838876361784809
0.21086971874999982	0.9073609934837443	0.9183279133082999	1.4013148728616367
0.20424858125000028	0.9014685405298865	0.898392393803649	1.4204694883218698
0.1975346999999993	0.897474640525707	0.877048204944014	1.435154600430492
0.19072677203125016	0.8931515080929557	0.8641086870196071	1.4395768572685774
0.18382349062500009	0.8862219006505988	0.8623579680210468	1.4279704649028298
0.1768235124999999	0.8760935104452984	0.8661146929828609	1.4001167099035745
0.1697254874999997	0.8636471742079908	0.8695411878124913	1.3705804788520197
0.16252803125000032	0.849092592515829	0.8708743707981611	1.3577513133116978
0.15522976562500024	0.8316745206023807	0.8708099138603589	1.3583606656350198
0.14782927187500008	0.8125260233251785	0.871441205197844	1.355601474779387
0.14032511875000012	0.7944381775331574	0.8709450996233981	1.338473765204762
0.13271585312499953	0.7797016330460719	0.8641613541930551	1.303972333420504
0.12500000000000008	0.7687683768446517	0.8502776277335427	1.2544479455371995
0.11805555499999976	0.7618877351705811	0.8323173495247912	1.1977784828965234
0.1111111112499997	0.7576828138237349	0.8156417480810714	1.1409467764976844
0.1041666662500002	0.7555151641487462	0.8010005681412191	1.0822112066846068
0.09722222250000022	0.754594030370421	0.7890055949900965	1.0244800489814447
0.09027777749999989	0.7545402417674649	0.7792462888280703	0.9710632329384417
0.0833333337499999	0.7555834164239156	0.7720899955746275	0.9238555674402722
0.07638888875000027	0.757994311169911	0.7668737374582958	0.8832794254840046
0.06944444500000004	0.7622036877693492	0.7623670529214409	0.8504844705089429
0.06250000000000004	0.7684653818987307	0.7586022782970356	0.8251382730252145
0.05555555499999981	0.7761323924550041	0.7573000906494691	0.8024584390598807
0.04861111125000011	0.7842337373713513	0.7604694698436023	0.7769393699281645
0.041666666249999915	0.7921227909479411	0.7687936092104614	0.7476456632896104
0.03472222250000002	0.7990942267288254	0.7798901837045555	0.7172647207508989
0.027777777499999906	0.8044928218284867	0.7900220961763027	0.6872835604970204
0.02083333374999994	0.8083003033634448	0.7975957665901069	0.6581037158477748
0.013888888749999953	0.810881807991185	0.8028890707561694	0.6318885126443526
0.006944446656250006	0.8124574826344619	0.8059389296563757	0.6121070571932502
0.0	0.890903239536489	0.6819798209890644	0.5964464337822214
