0.5000000000000003	0.002582246474205149	0.10142180444350771	0.19353358658706327
0.49742875625000194	0.002781315175966123	0.10022800598663356	0.1835725188586316
0.49482149687500077	0.02129663516821252	0.25371059195381845	0.5487889435114274
0.49217771875000144	0.05094621952354763	0.3757439999044382	0.9150808230235661
0.4894969062499981	0.08766664059208032	0.4763903300738693	1.2732562202265747
0.48677854687499983	0.1291153887560574	0.5624242226886729	1.6094372243090682
0.48402210937500056	0.17392210919306358	0.6367243076185134	1.9062748810138324
0.48122705937499843	0.2210954281594325	0.7004742343033538	2.1460424156702835
0.47839286562500044	0.26997331857722306	0.7532570599120776	2.32285795038346
0.4755189656249995	0.31917010864142403	0.794715846587863	2.445638411803078
0.47260480937499916	0.3665143214790434	0.8261964394289132	2.526610643114638
0.46964983750000083	0.41072829641951686	0.8509372594653594	2.572899098488106
0.4666534749999997	0.4520153368236524	0.8748153860931679	2.588940386989925
0.4636151437500017	0.4912767016685062	0.9052081772520808	2.5804393496700535
0.460534253124999	0.5292100756701282	0.9458547736743698	2.554366580155598
0.45741020937500093	0.5660222128721928	0.9921434980978033	2.5163475704804186
0.4542424000000002	0.6014099910887529	1.0342499372045564	2.4672195910975985
0.45103022812499977	0.6343485178531607	1.0654505628650215	2.4025826822713947
0.4477730562500009	0.6631136777482712	1.0837486064753221	2.318662929721153
0.44447025937500095	0.6863644619524645	1.0912575250567682	2.2206057434495814
0.441121206249999	0.7045699625222728	1.0935038087497182	2.1248470843965412
0.43772524062499985	0.7198265917036994	1.0939624188819057	2.0493417291275207
0.43428169999999944	0.7340141600478614	1.0942487489924186	2.001235008346994
0.43078993437500107	0.7485361548123283	1.0979941817155834	1.9787245454107785
0.42724925312500034	0.76429406309105	1.1088759065899783	1.9767353846606486
0.42365897499999994	0.7811137641598045	1.124007319435893	1.9892356597497105
0.4200184156249997	0.7984222515283198	1.1333903342160667	2.009975346729125
0.4163268562499999	0.815520925698009	1.1281696181763465	2.033174374713907
0.4125835906249998	0.8315840109844553	1.1071062058594474	2.0541938718077275
0.408787890625	0.8456587965636425	1.0760012269992236	2.068657429652134
0.404939028125	0.8569040251156467	1.0436516212562557	2.069666514509427
0.4010362531249997	0.8648223182679554	1.0177281147484576	2.053835071812358
0.3970788062500005	0.8698204204498473	1.003376952165656	2.0297767857039015
0.39306592812500063	0.8731851936883207	1.002000380376026	2.0073108800365134
0.38899684687499964	0.8760808287995019	1.0101409060132838	1.986139348465774
0.3848707656249999	0.8793249082497913	1.022912188692587	1.961470026845918
0.3806868874999992	0.8830368931284449	1.0369190359539056	1.9312522674907608
0.37644440312499916	0.8867417904542804	1.0491734206003698	1.901326251980792
0.3721424968749993	0.8903353150219109	1.0569464651655431	1.8820179525352863
0.36778033749999917	0.894722039699391	1.060079233412273	1.872619998685931
0.36335707500000036	0.9009069058222102	1.060755189126075	1.8607656359437197
0.3588718499999999	0.9088037719550619	1.0614418877698266	1.8396610131712632
0.3543238000000003	0.9166875165342723	1.0656676225800934	1.8115528573133555
0.34971204687499996	0.9217311079825767	1.076012730235319	1.7792216774078606
0.34503569687500074	0.9217746929382973	1.0900514397813004	1.7427709589693443
0.3402938437500005	0.9163821381370603	1.1026976946284364	1.7023523162768945
0.33548557187500094	0.9072902611609998	1.1103244917723223	1.6561585307884177
0.33060994687499945	0.8975942344552278	1.1109958645811884	1.6040295588329077
0.32566603124999943	0.8883507519267207	1.1058061969497242	1.5629233105258282
0.3206528687500002	0.8775948304882939	1.0959138803732469	1.5436413604327104
0.31556948125000117	0.8633634608170432	1.078207695162843	1.5349560109350884
0.3104148874999999	0.8466816265922008	1.0491129402617616	1.530952326668163
0.3051880968750001	0.8308964102221056	1.011913361414737	1.531653391718656
0.29988809062500027	0.8181697695482214	0.9758837901886412	1.5330069473197176
0.2945138468749994	0.8093125944088287	0.9469058974105372	1.527334373477233
0.28906433437500006	0.8051211003866516	0.925719859068514	1.512881075572371
0.2835384781249999	0.8059134387648902	0.9119714890419968	1.4971051854324637
0.27793522187500025	0.8108553692343435	0.9041790785517232	1.4865187501147488
0.2722534843750002	0.8179521364101688	0.899073468439387	1.4796669042802602
0.26649215624999945	0.8252754182315775	0.8923776923751537	1.4719699335339347
0.26065013437499934	0.831784017707793	0.882639887446993	1.4597889742834067
0.2547262812499995	0.8372210072632046	0.8735931876200618	1.440927582712552
0.24871944687499994	0.8416942636839865	0.8701541202659159	1.4147578027614323
0.24262847812499932	0.8452481659098807	0.8729948687176489	1.3839352590491674
0.23645219062500059	0.8471560432270375	0.8782106621890307	1.3531779916955897
0.23018939062499996	0.8459746081869158	0.8813852087070407	1.3226479934062403
0.22383886874999995	0.8409275819885611	0.8798081108121556	1.2901130054260226
0.2173993906249998	0.8318439629821852	0.8727030597441187	1.2575169248255065
0.21086971874999982	0.8191598275563825	0.8612545624783506	1.2272473503698336
0.20424858125000028	0.8043621702529564	0.8474459797649371	1.1977517352265894
0.1975346999999993	0.7894716629536759	0.8332428524867806	1.1677400330619763
0.19072677203125016	0.7758719257313	0.8208700328210115	1.140015806802285
0.18382349062500009	0.764032022738837	0.8126293927637701	1.1172656645072252
0.1768235124999999	0.7539039551211364	0.8099711500026511	1.099402324908927
0.1697254874999997	0.7451162441337467	0.8122617903499021	1.0859671529979256
0.16252803125000032	0.7374735076383747	0.8161767332150832	1.0770362106380196
0.15522976562500024	0.731420722619029	0.8172141223138709	1.0715191655729686
0.14782927187500008	0.7278954624438881	0.8122553514114067	1.066045997836745
0.14032511875000012	0.727395139231414	0.8012412804135076	1.0565403592031501
0.13271585312499953	0.7291878874102046	0.7856657326849138	1.042358371328721
0.12500000000000008	0.7318724586215628	0.7669534420595085	1.02633407363368
0.11805555499999976	0.7337639789013191	0.7487972006551266	1.0099316044171893
0.1111111112499997	0.7349313752872972	0.735529499660051	0.9946635637152758
0.1041666662500002	0.7351751441865974	0.728086874216259	0.9800878146375277
0.09722222250000022	0.7351604214427201	0.7278196122566876	0.9659145336069903
0.09027777749999989	0.7350456321321736	0.7344678139554318	0.9508721755537598
0.0833333337499999	0.7351124018310311	0.7456392226056668	0.9356756895561176
0.07638888875000027	0.735689962981006	0.7572822402655962	0.9236252344984867
0.06944444500000004	0.7372337230026582	0.7663111568727473	0.9180696362801435
0.06250000000000004	0.7398366713809625	0.7724752633121333	0.9201762190034083
0.05555555499999981	0.7429505752960684	0.7774724622475414	0.9291179365382697
0.04861111125000011	0.7462697455802134	0.7829214090506493	0.9429422805123605
0.041666666249999915	0.7507349285550584	0.7893498474946102	0.958755022554712
0.03472222250000002	0.7575613552471488	0.7952424026577992	0.9735808528903052
0.027777777499999906	0.7662601901851446	0.7959131792408303	0.9857205875478138
0.02083333374999994	0.7747232353823558	0.7897427003975481	0.9964429867918637
0.013888888749999953	0.7817044108143781	0.7842782314491259	1.0068571574119103
0.006944446656250006	0.787650305189977	0.7845825062698242	1.0145561042942726
0.0	0.7154835599077272	0.8536031564889961	1.024071222753567
