0.5000000000000003	0.0015777978961796692	0.10643673254440236	0.1935016046127759
0.49742875625000194	0.001614016602220478	0.10257677197410282	0.1770940261283105
0.49482149687500077	0.01267854249091825	0.26854906668312734	0.5325381442307418
0.49217771875000144	0.03136241852656252	0.4025241440326891	0.8931738814837547
0.4894969062499981	0.05551017488239382	0.508665812302999	1.2471482828598328
0.48677854687499983	0.08375129913642222	0.5918197587303446	1.5743896062655218
0.48402210937500056	0.11510397539488318	0.6579756760914696	1.8553667757848329
0.48122705937499843	0.14833250803122205	0.7124449614516963	2.0778667574214267
0.47839286562500044	0.18196325632844326	0.7577720578112834	2.2376652342140018
0.4755189656249995	0.21468248177816823	0.7946607975905906	2.336921285294336
0.47260480937499916	0.24632200456683376	0.824196000218993	2.3851471785925558
0.46964983750000083	0.27794715174348344	0.8484056121907103	2.396334934624865
0.4666534749999997	0.3108905110072995	0.8689177187239856	2.3812850137722874
0.4636151437500017	0.34594934606975153	0.8856389316034765	2.3458757327108346
0.460534253124999	0.3830492597906246	0.8983090981209976	2.295319265922407
0.45741020937500093	0.4211028217666054	0.9089178899126721	2.2353908777981673
0.4542424000000002	0.45884467476202795	0.9205914518122852	2.1727686837348212
0.45103022812499977	0.4959746078277082	0.9346821721827007	2.115917116434058
0.4477730562500009	0.5326566475112128	0.9501082548215329	2.0712545545733576
0.44447025937500095	0.5682324288652632	0.9648238530631966	2.037506324047068
0.441121206249999	0.6014003698035633	0.9775065142576418	2.007174033922953
0.43772524062499985	0.6309666971416985	0.9883609905467378	1.9730494720800658
0.43428169999999944	0.6565040032958809	0.9990731544743251	1.9319187954595844
0.43078993437500107	0.6784069959138173	1.012360347152185	1.884690592227959
0.42724925312500034	0.6972173383330288	1.030474413773594	1.8356764782615453
0.42365897499999994	0.7132198771080785	1.0526786152307372	1.7908213495609395
0.4200184156249997	0.7265954665602296	1.075315920345933	1.7550297333424143
0.4163268562499999	0.7376838992088268	1.0955148992576402	1.7301781445948228
0.4125835906249998	0.7472436946398872	1.1135923154799974	1.7154126445216191
0.408787890625	0.7564179770826333	1.1318051422815103	1.7095118968225822
0.404939028125	0.7663094688126385	1.1523805204640147	1.712901227804738
0.4010362531249997	0.7772600446141303	1.1753188403387755	1.7261673801122506
0.3970788062500005	0.7887339830594975	1.1946364550213087	1.7484274920051408
0.39306592812500063	0.7999401779871859	1.2009584747662714	1.7775333699147358
0.38899684687499964	0.810081407209846	1.1918016374637395	1.8092697798271433
0.3848707656249999	0.8180088376811475	1.1734817591550675	1.8377075911613991
0.3806868874999992	0.8229284254321785	1.1535125594668094	1.8586536701500098
0.37644440312499916	0.8248275838471703	1.135635362466637	1.8716642878991965
0.3721424968749993	0.8241846347344232	1.1200797285266615	1.8783975226052294
0.36778033749999917	0.8216860140275088	1.106172393868973	1.8798605649099975
0.36335707500000036	0.8181517875157505	1.094039126346092	1.8747729576736096
0.3588718499999999	0.8147093692572441	1.0843983440059997	1.8606822896248945
0.3543238000000003	0.8127957411773807	1.0782716261775658	1.8359517451351346
0.34971204687499996	0.8135851889044537	1.0766501617782211	1.8020800562376356
0.34503569687500074	0.8169457640527732	1.0785476001853196	1.7653752286528017
0.3402938437500005	0.8206542795576331	1.0799869041074508	1.7304682629222679
0.33548557187500094	0.8223180488414723	1.0782932045753395	1.692139512524256
0.33060994687499945	0.8215678754980633	1.0749209485346485	1.6441391323554064
0.32566603124999943	0.8196612885778327	1.0711480945644922	1.589436048514644
0.3206528687500002	0.8187139428775969	1.0667346982517978	1.537580102146964
0.31556948125000117	0.8205000173893437	1.0613724106839522	1.4947451308119297
0.3104148874999999	0.8252351781597757	1.0542788375033778	1.4618533069565924
0.3051880968750001	0.8315652093741759	1.0458411888799264	1.440102018156316
0.29988809062500027	0.8390677742520647	1.0389700365705563	1.4323833554209287
0.2945138468749994	0.848188335888203	1.0377657649126353	1.4366192181982405
0.28906433437500006	0.8582779288732958	1.0410570398680061	1.4429713117480487
0.2835384781249999	0.8672969918348712	1.0408900445942861	1.4429784861475032
0.27793522187500025	0.87285853459682	1.0295030009098405	1.4365725772932423
0.2722534843750002	0.8729110766558575	1.006355534086471	1.4253320800328084
0.26649215624999945	0.867206260464305	0.9780718033837077	1.4077887163865617
0.26065013437499934	0.8574837310013256	0.9521755507534361	1.3834326798620027
0.2547262812499995	0.8457576802957972	0.9312188201913463	1.3571931185144959
0.24871944687499994	0.8334583206491047	0.9115028977425146	1.334607871152554
0.24262847812499932	0.8206809589592959	0.8885298257787587	1.3139406492255141
0.23645219062500059	0.8073629211679014	0.8634254893280523	1.2936119934660635
0.23018939062499996	0.7945939673171473	0.8436554509844514	1.2769224954499325
0.22383886874999995	0.7835117490053527	0.8362635892128181	1.261442840204355
0.2173993906249998	0.7748729326020555	0.8413614819743884	1.2410644066253234
0.21086971874999982	0.7690926087051405	0.855755825289834	1.2146919449271565
0.20424858125000028	0.7659765139397866	0.8777958877595741	1.1860077822745696
0.1975346999999993	0.7645741399501724	0.9051400911390816	1.1607339866109483
0.19072677203125016	0.7630426942519286	0.9309369275741622	1.1440779732184836
0.18382349062500009	0.7597005094755295	0.9449918489276382	1.1407126366662916
0.1768235124999999	0.7540144183700883	0.9401727184632452	1.1502218694163133
0.1697254874999997	0.7474830602932626	0.9171553598861848	1.1626650665959355
0.16252803125000032	0.7424793825897597	0.8810247336091921	1.1660798592206976
0.15522976562500024	0.7400401827706794	0.8368475150552764	1.153855407233342
0.14782927187500008	0.7389767966722868	0.7911267213508173	1.1289403631285004
0.14032511875000012	0.7375147515911201	0.7540688725096152	1.102405856541041
0.13271585312499953	0.7342281737444802	0.7344354464354319	1.081332734522138
0.12500000000000008	0.7286867372082655	0.7312367693101841	1.0617035067699232
0.11805555499999976	0.7215188781244969	0.7350471330527709	1.0387663977647519
0.1111111112499997	0.713860949413411	0.7406151894517538	1.0127476367778199
0.1041666662500002	0.7066937728717742	0.7441271498830568	0.9825424408009721
0.09722222250000022	0.7006176637521749	0.7423981109236444	0.9491696206295266
0.09027777749999989	0.6954853682853457	0.733000089204542	0.9127918378542059
0.0833333337499999	0.6902064737601048	0.7149395928856318	0.8729008442395146
0.07638888875000027	0.6839608914100064	0.6901778724394975	0.8310557300272957
0.06944444500000004	0.6768341119689116	0.6646197882485108	0.7928194780276239
0.06250000000000004	0.6692782528887461	0.6436608795706209	0.7612043632407389
0.05555555499999981	0.6619438518735279	0.6294786740607693	0.7329071208338862
0.04861111125000011	0.6555470552753694	0.6226159147260341	0.705367889292768
0.041666666249999915	0.6505556551242858	0.622441510883913	0.6800952006065344
0.03472222250000002	0.6471624069582809	0.6262024568618398	0.6593735519746272
0.027777777499999906	0.6451875190009779	0.6301865799674841	0.6442903264742926
0.02083333374999994	0.644034721083451	0.6321745126725178	0.6353948293717366
0.013888888749999953	0.6430147450246673	0.6320911715896343	0.6324373456487044
0.006944446656250006	0.6416971862010047	0.6304898770331256	0.6325180290720206
0.0	0.6599255971170848	0.5660919925802035	0.6342290690893084
