0.5000000000000003	0.0017259057877411033	0.09702133788411592	0.21758314988226318
0.49742875625000194	0.0017042703881746256	0.09291209443244189	0.21020626351496602
0.49482149687500077	0.013365118771842648	0.23779103032531412	0.6267229017593292
0.49217771875000144	0.03274735594910594	0.35136664237104454	1.031546640081992
0.4894969062499981	0.057128874962814886	0.4398200127266151	1.407048212602195
0.48677854687499983	0.08457468091800102	0.5069946010256924	1.734241302972096
0.48402210937500056	0.11387804840259878	0.5560995929700041	1.9934940220685053
0.48122705937499843	0.14388881130189576	0.5941225979672496	2.1715141267611955
0.47839286562500044	0.1735977855420467	0.6321352030575299	2.2754665292318665
0.4755189656249995	0.20243174999552416	0.6779771235857084	2.33203689465402
0.47260480937499916	0.23063763365605844	0.7314516359531389	2.368058106286341
0.46964983750000083	0.2594219969306755	0.7873899375700055	2.3963607072526196
0.4666534749999997	0.2900552280116701	0.8390008855938837	2.4190712713820894
0.4636151437500017	0.3228411188240485	0.8791550437787102	2.43541959675459
0.460534253124999	0.35681248826441775	0.9028802030714299	2.443172819083701
0.45741020937500093	0.3906186506136092	0.9103716325597399	2.438379368450823
0.4542424000000002	0.4235849146049143	0.9081036333558372	2.418027181165396
0.45103022812499977	0.45572673073271	0.9045211611650275	2.3831712640114606
0.4477730562500009	0.4873605785041883	0.9028923965080146	2.3375219929776803
0.44447025937500095	0.5186395777726438	0.9009506724847487	2.283803669182717
0.441121206249999	0.5494703004870785	0.8963804238323029	2.225854945307591
0.43772524062499985	0.5799006641768182	0.8892083557792699	2.1709379511274975
0.43428169999999944	0.6097887096909326	0.8808576530126617	2.12536209301839
0.43078993437500107	0.638210356894976	0.873017300376435	2.089156750800689
0.42724925312500034	0.6638802494554285	0.8673861843450325	2.0568064294074313
0.42365897499999994	0.6859561728931056	0.8655307692007025	2.0224273786745535
0.4200184156249997	0.7042173383320479	0.8685697686257564	1.9841923591671176
0.4163268562499999	0.7189096854885778	0.8772062054785874	1.9447939124101072
0.4125835906249998	0.7307814263678684	0.8912410970467181	1.908121886787777
0.408787890625	0.7405284368107892	0.9084853508852494	1.8758762929078796
0.404939028125	0.7485904751972698	0.9254392489715361	1.8477625063891245
0.4010362531249997	0.7550026574962839	0.9396973374896505	1.8229921511451013
0.3970788062500005	0.7596019206787152	0.951715058830402	1.7998261215370501
0.39306592812500063	0.7623320676668147	0.9641581063695902	1.7747736834229164
0.38899684687499964	0.7636089678344823	0.9790755727533609	1.7456525201294661
0.3848707656249999	0.7642850475352602	0.9967735332224071	1.7156605411174952
0.3806868874999992	0.7649214763497552	1.0167928063206744	1.6911683065797225
0.37644440312499916	0.7654574544070016	1.0380261467039706	1.6751417557206691
0.3721424968749993	0.7654937830295991	1.0581221250476516	1.664425187376039
0.36778033749999917	0.7645793363095496	1.0734728515568255	1.6526875630157858
0.36335707500000036	0.7626381207331848	1.0804708399871048	1.634593191582938
0.3588718499999999	0.7600571970770569	1.077177351277396	1.6073043635712791
0.3543238000000003	0.7572396177065868	1.0640780579758757	1.5701599947584022
0.34971204687499996	0.754224834854048	1.043641680252372	1.5240725498272865
0.34503569687500074	0.7509145122636559	1.0192326578546973	1.4711161427012351
0.3402938437500005	0.7472465893604157	0.9942697446327629	1.4148596522029497
0.33548557187500094	0.7433290816609885	0.9716295902597821	1.3606409218205762
0.33060994687499945	0.7396168499315962	0.9533509236334999	1.31315652657443
0.32566603124999943	0.736711671855983	0.9409312217990511	1.2739576078953032
0.3206528687500002	0.7353008680651973	0.9355225807639932	1.2442731780471383
0.31556948125000117	0.7363300102508875	0.9375345194453889	1.2277566488922937
0.3104148874999999	0.7404516685214619	0.9462119079961642	1.2260093935451435
0.3051880968750001	0.7474654973543746	0.9596169348654838	1.2347791683403528
0.29988809062500027	0.7561220593710917	0.9742446240161663	1.2469239867195532
0.2945138468749994	0.7646954014026555	0.9852459222613985	1.25628537805089
0.28906433437500006	0.7716815254651449	0.9878080227048445	1.25900638332277
0.2835384781249999	0.7759270381564459	0.9789693360362399	1.2547569383091202
0.27793522187500025	0.7763734136374598	0.9594265404394384	1.2466190800374581
0.2722534843750002	0.7725422766412116	0.9334096983009815	1.2373006791672432
0.26649215624999945	0.7651721898561776	0.9069010391064141	1.227296158748509
0.26065013437499934	0.7557075016979049	0.8856909747108156	1.2178985836893086
0.2547262812499995	0.7456653619160872	0.8716542243514176	1.2115425721244215
0.24871944687499994	0.7357438621180276	0.8619261471135826	1.2059755624247384
0.24262847812499932	0.7260481494481951	0.8540850947194688	1.1949852529372813
0.23645219062500059	0.7172142041791472	0.8488692624954167	1.177656585186924
0.23018939062499996	0.7101405123568849	0.8468126164550076	1.1578249763939952
0.22383886874999995	0.7048433989809663	0.8445160348126578	1.1393838379921346
0.2173993906249998	0.6996631781251711	0.8352733132078612	1.1252909602451875
0.21086971874999982	0.6921018419132661	0.8135330007039714	1.116280988267776
0.20424858125000028	0.6811388502352981	0.7798371955185148	1.1113070371105203
0.1975346999999993	0.6682765667053773	0.7410992767482955	1.109504846218969
0.19072677203125016	0.6562875030749891	0.7060907437533709	1.1085320061362063
0.18382349062500009	0.6470595716868832	0.681937810480945	1.1041623216813599
0.1768235124999999	0.6413498115108615	0.6690119322771938	1.0928546380020534
0.1697254874999997	0.6393599874586456	0.659596548992316	1.0753447123702586
0.16252803125000032	0.6405725071147336	0.647276823493689	1.0559368342087072
0.15522976562500024	0.6436233820763676	0.6342712825773559	1.0377796621494926
0.14782927187500008	0.6462535339390154	0.6272789401106484	1.0206136398948242
0.14032511875000012	0.6462005846380395	0.629474900918976	1.0036075340482602
0.13271585312499953	0.6423286403321856	0.637066651805051	0.9858908150064603
0.12500000000000008	0.6353006666729062	0.6422158106532145	0.9657298295145199
0.11805555499999976	0.6265834336765037	0.6373627610448569	0.9431311230812438
0.1111111112499997	0.6182208652544183	0.6250497412781386	0.9223664581825848
0.1041666662500002	0.6103946674266684	0.6097659852741766	0.906775552587798
0.09722222250000022	0.6029271635533257	0.5976091580089502	0.8997629973933018
0.09027777749999989	0.5951628911157434	0.5888448808563512	0.9001789931323698
0.0833333337499999	0.5865345940337328	0.5795534050227754	0.9055090619267682
0.07638888875000027	0.5771497163068278	0.5676471411559146	0.9140221122503179
0.06944444500000004	0.5678352431808698	0.5551259836116881	0.9235227465604116
0.06250000000000004	0.5598034460663868	0.5457293043783038	0.9305481860410395
0.05555555499999981	0.5540018651478138	0.5420205629240499	0.9314536713178114
0.04861111125000011	0.5506267122626702	0.5442205073692743	0.9242568929629535
0.041666666249999915	0.5491932296332813	0.5503258621346961	0.9095814404299389
0.03472222250000002	0.5489906411848816	0.5570696064735791	0.8898605616400954
0.027777777499999906	0.5495214901156498	0.5616315117721937	0.8678236413227114
0.02083333374999994	0.5505845196521861	0.5630601485547332	0.8459271192689549
0.013888888749999953	0.5520058791643697	0.5621117151744022	0.8265866188232582
0.006944446656250006	0.553381298960195	0.5600245002713288	0.8121340454381987
0.0	0.5261646560796379	0.5706863561374286	0.8008242493531406
