0.5000000000000003	0.001957602030925731	0.09762899812862365	0.1845902967315142
0.49742875625000194	0.001876447945256096	0.08974837268873927	0.16491723744977835
0.49482149687500077	0.013932792117920393	0.22939936557064425	0.49643533472285534
0.49217771875000144	0.0335239588948548	0.3374932650807832	0.8361172775199146
0.4894969062499981	0.05733340361353573	0.419076595441282	1.1804630070264386
0.48677854687499983	0.08250340627739476	0.4804009564191996	1.5199587954814673
0.48402210937500056	0.1077585394464062	0.5304059379224167	1.8428324038669919
0.48122705937499843	0.13389149760948332	0.5763788647664129	2.134694073753007
0.47839286562500044	0.16214580223326966	0.6185633779018124	2.377398726298467
0.4755189656249995	0.19176396629993533	0.653442949869219	2.5553582627704645
0.47260480937499916	0.2207931038847068	0.6806467080004059	2.664230222563422
0.46964983750000083	0.2482208507366784	0.7045569240479252	2.7146692521719755
0.4666534749999997	0.2741707500875261	0.7302837046395958	2.7280336702338808
0.4636151437500017	0.2996303484279364	0.7584409266281606	2.7262361780069013
0.460534253124999	0.3256295739491738	0.7873769696595387	2.719310390393464
0.45741020937500093	0.3525974905815564	0.81846518132452	2.7009687431503533
0.4542424000000002	0.3809609017887087	0.8537090781996934	2.662820105670508
0.45103022812499977	0.41138152850714815	0.8903779898222309	2.6095308580547862
0.4477730562500009	0.44369224856400713	0.9215932842106059	2.554700502643439
0.44447025937500095	0.47662986998149454	0.9412451521497998	2.5082644084663084
0.441121206249999	0.5089284517101128	0.9478798769597432	2.472069118070767
0.43772524062499985	0.5399407666491025	0.9455137618077291	2.4428473591308255
0.43428169999999944	0.5694774442038588	0.9404349951533799	2.4154553572838067
0.43078993437500107	0.5976384839147347	0.936258278517471	2.3855086873094793
0.42724925312500034	0.6243682939992757	0.9326624832451116	2.3521231578428945
0.42365897499999994	0.6491532181183549	0.9282379771102715	2.318064188746592
0.4200184156249997	0.6710735897326638	0.9226925151609995	2.286746387541839
0.4163268562499999	0.6892817894097207	0.91684363506537	2.2594987665271944
0.4125835906249998	0.7033348890221015	0.911192061779176	2.235389256954631
0.408787890625	0.7137820410767981	0.9045184235921578	2.2133844464093513
0.404939028125	0.7221709358989693	0.8945493734703878	2.1947602691269394
0.4010362531249997	0.7298927072404098	0.880420099397723	2.182112181616301
0.3970788062500005	0.7379068110746712	0.8640842967074196	2.174275803432238
0.39306592812500063	0.7469964042353188	0.8493954308806787	2.1625617602841545
0.38899684687499964	0.757046457430898	0.8405004591528247	2.1369079947417955
0.3848707656249999	0.7667298831705293	0.8416143513588169	2.098569402539584
0.3806868874999992	0.7746110069796923	0.8554983056772668	2.0590213531127013
0.37644440312499916	0.780474452629622	0.8801914664533713	2.024791864114864
0.3721424968749993	0.7852467897074029	0.9089365293050913	1.9929141489689106
0.36778033749999917	0.7896939199446079	0.9336998875247451	1.9588133865423027
0.36335707500000036	0.7936104256668604	0.9478740247899132	1.9208154775332635
0.3588718499999999	0.7964539487935642	0.9481549003790432	1.8793247393298866
0.3543238000000003	0.7982512103647198	0.9360720555849448	1.8362215782721085
0.34971204687499996	0.7997605788941429	0.9176976239605774	1.7942031091282609
0.34503569687500074	0.8017452143003638	0.9013687018436005	1.754947464083228
0.3402938437500005	0.8042537544055128	0.8942377736110673	1.7196765891100356
0.33548557187500094	0.8067105385849764	0.89800374285544	1.6924715744319205
0.33060994687499945	0.8081394378102481	0.9069909683648122	1.6780851616893784
0.32566603124999943	0.8073879501599505	0.9127755961411647	1.675851482064503
0.3206528687500002	0.8035040238650722	0.910763542465631	1.6799406621556647
0.31556948125000117	0.7967780623073332	0.9020466603484947	1.6821156155871713
0.3104148874999999	0.7886419008088199	0.8936580233807282	1.674879224160096
0.3051880968750001	0.7796688896742975	0.893695929776098	1.6554757681881616
0.29988809062500027	0.7703175212701662	0.9019600992638995	1.6260899138123217
0.2945138468749994	0.761219857644342	0.9107047160654773	1.5917748952160569
0.28906433437500006	0.7524656782569447	0.9132388122873265	1.5586881817636207
0.2835384781249999	0.7434387232547648	0.9078497777698386	1.5294092049655978
0.27793522187500025	0.7329889407967236	0.89619829915021	1.5004742976953573
0.2722534843750002	0.7197456114251936	0.8822261887183406	1.4680255247885419
0.26649215624999945	0.7040120061824545	0.8717205411181936	1.433796919369567
0.26065013437499934	0.6887439719699247	0.8686477927580771	1.4013046028243992
0.2547262812499995	0.677205437455092	0.8721733701048621	1.3700231496784567
0.24871944687499994	0.6707894803822139	0.8776469246392538	1.3382111501901786
0.24262847812499932	0.6690664472655053	0.8812129203797704	1.3058590365083849
0.23645219062500059	0.6700662742684141	0.8819960238706905	1.2751686818905243
0.23018939062499996	0.6709636379147982	0.8797058775586032	1.2486541133727886
0.22383886874999995	0.6694669092250158	0.8750918602885273	1.2259370935396097
0.2173993906249998	0.665019804696542	0.871151425580668	1.2045578079784334
0.21086971874999982	0.6589405948351756	0.870440487143209	1.184416591484702
0.20424858125000028	0.6532627187690279	0.8720461678184395	1.1665375849899515
0.1975346999999993	0.6488056706926345	0.870971809644937	1.1495044982511633
0.19072677203125016	0.645248293524807	0.8618390348543761	1.132582073231693
0.18382349062500009	0.6427285834399418	0.8441354007617756	1.1165584659524745
0.1768235124999999	0.642250146477788	0.8243979953492299	1.1021984601895727
0.1697254874999997	0.6437284337842912	0.8111547051479789	1.0897082719054219
0.16252803125000032	0.6449088673427857	0.8056702696108249	1.0797667314424968
0.15522976562500024	0.6434551255286326	0.8026685297439696	1.0724390648214694
0.14782927187500008	0.6386055599256739	0.7978205157858954	1.0654869488346073
0.14032511875000012	0.6307684724622322	0.790759930077918	1.055289486263954
0.13271585312499953	0.6206838633547119	0.7824835446804944	1.0398859078233038
0.12500000000000008	0.6088462968094938	0.7732602598183396	1.020449038282753
0.11805555499999976	0.5983164764916464	0.7632786409904834	1.000470474173971
0.1111111112499997	0.59151694193648	0.7559337714459354	0.9819749079327049
0.1041666662500002	0.5891365561150909	0.7512623706906798	0.9631984334975345
0.09722222250000022	0.5907187228050551	0.7473441775502739	0.9450117848439078
0.09027777749999989	0.595182603297258	0.7414495261518349	0.931118705450819
0.0833333337499999	0.6012565948690015	0.7323894095846232	0.9260063476032712
0.07638888875000027	0.607852885516966	0.7199569111959195	0.9303046505216749
0.06944444500000004	0.6144073706831885	0.7042686495650684	0.9387969350002968
0.06250000000000004	0.620967674643089	0.6862221254002735	0.9435659041219677
0.05555555499999981	0.6277397267493372	0.6678380474100287	0.9397975941097451
0.04861111125000011	0.6348621076711102	0.651701901511717	0.9283959813635763
0.041666666249999915	0.6425758275519255	0.6404837344695076	0.9138642500358418
0.03472222250000002	0.6513474885944899	0.6363362969711136	0.9009863191521316
0.027777777499999906	0.6614478445736233	0.6397296556047908	0.892424642033636
0.02083333374999994	0.6723320007727789	0.648881218740109	0.8884005146560064
0.013888888749999953	0.6825052339724927	0.6605297635190179	0.8879187214154604
0.006944446656250006	0.689913665216294	0.6713502596889976	0.88934402100357
0.0	0.5406217729080972	0.7914223158585492	0.8755382996223903
