0.5000000000000003	0.001796761620929861	0.10314504402757141	0.16168129884817836
0.49742875625000194	0.0017747422760423202	0.10079931241186638	0.15356113718271797
0.49482149687500077	0.013624206720668698	0.2598730349623701	0.4605307848316558
0.49217771875000144	0.033165966673817916	0.38423054349370767	0.7701534587940194
0.4894969062499981	0.05791871372093934	0.4780133475744349	1.0768681856285875
0.48677854687499983	0.08606808613222991	0.5448973104910758	1.3689389355705175
0.48402210937500056	0.11654805586757894	0.5894091387156996	1.6293179850578585
0.48122705937499843	0.14871539603855183	0.6170693039651737	1.8406898165564807
0.47839286562500044	0.18246771833536665	0.6331134222378831	1.9978580679626323
0.4755189656249995	0.21784490130814757	0.6414098474664897	2.1140599920200307
0.47260480937499916	0.25422182014003636	0.6464111327539214	2.2050873050870403
0.46964983750000083	0.2908829687253826	0.6563011641640161	2.271326408254424
0.4666534749999997	0.3282111778560898	0.6791437070202916	2.307150535566505
0.4636151437500017	0.36671431306904717	0.71647429391297	2.3202315395102926
0.460534253124999	0.4052219616969011	0.7643509845453755	2.3270582252453664
0.45741020937500093	0.4419387785316405	0.8141755246820032	2.335090728257046
0.4542424000000002	0.4761444039211144	0.8570929054911632	2.3405068489519287
0.45103022812499977	0.5079252696408015	0.8907119511953485	2.338689701918667
0.4477730562500009	0.5372275085056117	0.9174097599016897	2.3295121684699773
0.44447025937500095	0.5636338299632289	0.9397068069916171	2.3167646896766865
0.441121206249999	0.5867176510340257	0.9582521813058169	2.305237253117232
0.43772524062499985	0.6066414457894486	0.9725274724637581	2.296705288557112
0.43428169999999944	0.6239725955732033	0.9821402818608893	2.2879265976786134
0.43078993437500107	0.6393304780291577	0.9871776363223036	2.2734859277196575
0.42724925312500034	0.6531545542361401	0.9876956057324509	2.25099693365943
0.42365897499999994	0.6659653850985605	0.9835600319689809	2.2229498690620755
0.4200184156249997	0.6786186877427969	0.9751285393108998	2.194273514274913
0.4163268562499999	0.6917834101924852	0.9642486195344568	2.169086851320928
0.4125835906249998	0.705162108002862	0.9540507706436482	2.1475023646709004
0.408787890625	0.7180192200475575	0.9468688321280598	2.1245121875631843
0.404939028125	0.7302218147384986	0.9425344397325456	2.0935036545573213
0.4010362531249997	0.7426713846574008	0.9391078187133377	2.052137262142158
0.3970788062500005	0.7569795126473948	0.9353599687942151	2.0045014710781404
0.39306592812500063	0.7744124768433155	0.9330712076089022	1.9573215384246865
0.38899684687499964	0.7945519372910367	0.9362293987940264	1.9142787653676088
0.3848707656249999	0.815244008757028	0.9470440554971357	1.8738855144776787
0.3806868874999992	0.8339572662948396	0.963324353027048	1.8327213144683951
0.37644440312499916	0.8490159612077124	0.979551476485524	1.7904790539432474
0.3721424968749993	0.8601230491666835	0.9883778676035235	1.7506859182418513
0.36778033749999917	0.8679873322900302	0.9833971148848109	1.7181879589274398
0.36335707500000036	0.8736819141103624	0.9636755033505604	1.6963169235105742
0.3588718499999999	0.8780178772777155	0.9347721788893147	1.6844815024126598
0.3543238000000003	0.8812139539727541	0.9046076287541198	1.6779640502456938
0.34971204687499996	0.8830458642928062	0.8782015002135164	1.671417302419215
0.34503569687500074	0.8830316138596038	0.8564680504411458	1.6632792570901682
0.3402938437500005	0.8805743629872897	0.8387519356046059	1.6557686796346662
0.33548557187500094	0.8755344863484475	0.8248656605193382	1.6515053733725031
0.33060994687499945	0.8683974044420824	0.8156384700491389	1.6503099556597791
0.32566603124999943	0.8597013849470952	0.8127180046954555	1.6485255793393017
0.3206528687500002	0.8497019213952792	0.8181301606834858	1.6420264027665348
0.31556948125000117	0.8388508145172962	0.8327149614913373	1.6289322836752875
0.3104148874999999	0.827950224765601	0.8543658214238745	1.6090771734513565
0.3051880968750001	0.8175971918958599	0.8788677073387795	1.5831014419502527
0.29988809062500027	0.8082090781690483	0.9026337435332469	1.5515023413807572
0.2945138468749994	0.800024811812106	0.923033756458439	1.5134717977170438
0.28906433437500006	0.792883153739333	0.9371506059360554	1.470085517037205
0.2835384781249999	0.7860985927184915	0.9424707685258593	1.4277807126843896
0.27793522187500025	0.7789921028158513	0.9382204816659324	1.394530698191556
0.2722534843750002	0.7712161296808826	0.9257979615187588	1.3744851286235371
0.26649215624999945	0.7626636628212431	0.9092042333240697	1.3665824707257417
0.26065013437499934	0.7529783834679512	0.8934486234608184	1.3657512483131673
0.2547262812499995	0.742163357392536	0.8814816332680183	1.3643647869584719
0.24871944687499994	0.731461465139616	0.8727440093505588	1.35487821916614
0.24262847812499932	0.7223408245975157	0.8644539811502097	1.332804180588843
0.23645219062500059	0.7149326560785818	0.8533476534602014	1.2981995892353813
0.23018939062499996	0.7083404616739891	0.8369638436168888	1.2538951979227853
0.22383886874999995	0.7018357964389015	0.8148262212388095	1.2022030929359806
0.2173993906249998	0.6949419399805167	0.7884136862581024	1.1462242968455054
0.21086971874999982	0.6875486912626049	0.7607341263023872	1.0932887283123627
0.20424858125000028	0.6802884689274116	0.7355305634236963	1.0509411849674033
0.1975346999999993	0.6724952291126696	0.7134995110536524	1.0196713744124297
0.19072677203125016	0.6616122104624883	0.6900916322199863	0.9928401990907657
0.18382349062500009	0.6482435508172794	0.6648930647177971	0.9639401290497586
0.1768235124999999	0.6368055822533932	0.6472803841669413	0.9323114965054243
0.1697254874999997	0.6287444741099449	0.6415378848451898	0.9004821329710956
0.16252803125000032	0.6218284524591464	0.6426260152951615	0.8699500853615367
0.15522976562500024	0.6147451076563549	0.6423867422361922	0.8424706904557752
0.14782927187500008	0.6075801477469068	0.633438449508244	0.8192262834481155
0.14032511875000012	0.6009207441972177	0.6117990300088386	0.8007051566139787
0.13271585312499953	0.5947298337545056	0.5794123737503535	0.7863957836567467
0.12500000000000008	0.5891607681741898	0.5471643878008213	0.7737070247394743
0.11805555499999976	0.5852921513255764	0.5257874397855499	0.7624273181452131
0.1111111112499997	0.5836151509533973	0.5176088061129561	0.7531547249362815
0.1041666662500002	0.5838885359501814	0.5177052699282028	0.742681761319568
0.09722222250000022	0.5857547788707468	0.5204234256276089	0.7307389970302468
0.09027777749999989	0.5882778481841916	0.5213537754759531	0.7197633349607421
0.0833333337499999	0.5906179842671583	0.5191517836597386	0.7119977993582031
0.07638888875000027	0.5923568812621353	0.5155970672362375	0.7081563620472119
0.06944444500000004	0.5935449123557718	0.5143944819258177	0.7070699816249109
0.06250000000000004	0.5942925642719735	0.5174341469668018	0.7061580584584819
0.05555555499999981	0.5942420795564154	0.5233155355844973	0.7029309689774664
0.04861111125000011	0.5925462858378592	0.5297261564802834	0.6960616813032332
0.041666666249999915	0.5886514165795944	0.5358720062295851	0.68548349405036
0.03472222250000002	0.5831158972463312	0.5422535595756354	0.6724077388720314
0.027777777499999906	0.577529534072073	0.5485899152128882	0.6589601879748175
0.02083333374999994	0.573500234399594	0.5534108101152326	0.647212971249897
0.013888888749999953	0.5715350267808479	0.5557485807199504	0.6386064444848464
0.006944446656250006	0.5707795911888487	0.5563015184473946	0.633625574076656
0.0	0.5218624705233343	0.5969693711906575	0.6240416668379508
