0.5000000000000003	0.0029836406140858413	0.12402965704846143	0.17791270478445423
0.49742875625000194	0.0027416166661463817	0.09805261438277718	0.17942249277484504
0.49482149687500077	0.021180759244538504	0.2545839810969989	0.5357682092223932
0.49217771875000144	0.0514059177841797	0.38768744902878755	0.8935231325490695
0.4894969062499981	0.08842018788114431	0.5036219985069463	1.245886818904716
0.48677854687499983	0.12810562999368583	0.6065748316619658	1.5820672124629471
0.48402210937500056	0.16765651445076257	0.6982088600523909	1.8915514388689378
0.48122705937499843	0.20512233305060262	0.7764921682142036	2.1639157489363265
0.47839286562500044	0.2392680371751014	0.8379920431483006	2.385490211521829
0.4755189656249995	0.27052789650383247	0.8816388924544788	2.544406249702899
0.47260480937499916	0.3009639923959644	0.9098823563614223	2.64121236176495
0.46964983750000083	0.33187063815068446	0.9281660383411069	2.690305223551955
0.4666534749999997	0.36291118515968446	0.9429973426632294	2.708644119286845
0.4636151437500017	0.3934090205639865	0.9596551000860442	2.7068033999183694
0.460534253124999	0.4233620597112846	0.9820209661386987	2.691252984126496
0.45741020937500093	0.4528685294242646	1.0111962664061072	2.6660291480407676
0.4542424000000002	0.48205885051793185	1.0430098659337654	2.63072855637799
0.45103022812499977	0.5116055892544396	1.070210287845534	2.5835036800016056
0.4477730562500009	0.5425561669109886	1.0878738274759192	2.5278983534569752
0.44447025937500095	0.5756024157641475	1.0947667080163404	2.4732279191953106
0.441121206249999	0.6097765883909481	1.0934303066658813	2.4268756115080268
0.43772524062499985	0.6421740714930321	1.091645355930954	2.386177204572033
0.43428169999999944	0.6702171291143953	1.0963361258597426	2.339953349772971
0.43078993437500107	0.6936283700739544	1.1058591967273919	2.2816319528370537
0.42724925312500034	0.7136176916646741	1.114608688644202	2.2140692708711964
0.42365897499999994	0.73084940998169	1.1204025207639525	2.142172474678167
0.4200184156249997	0.7446285389414047	1.1233969110318716	2.068596613401349
0.4163268562499999	0.7543855204376709	1.122455899900503	1.9975655022362602
0.4125835906249998	0.7612349512937576	1.1159690996865668	1.9371141477595417
0.408787890625	0.7673665244322265	1.1039573897632196	1.893497719806377
0.404939028125	0.774412155099908	1.0882074537808943	1.866612765928886
0.4010362531249997	0.7830697075526644	1.0729379727651924	1.8498993426190515
0.3970788062500005	0.7933595481746059	1.0642674780462698	1.8333829480655293
0.39306592812500063	0.804577680065755	1.0658638618114293	1.809283050270222
0.38899684687499964	0.8152889208306854	1.074652086289014	1.7798909181351927
0.3848707656249999	0.8242847305248506	1.0822069585093854	1.759109340061589
0.3806868874999992	0.8317503320621874	1.0828081627159285	1.7507238916708585
0.37644440312499916	0.8390701402178773	1.0770494181831298	1.7390518251941272
0.3721424968749993	0.8480589591847079	1.0673103123989154	1.7160922922953217
0.36778033749999917	0.8598892732164719	1.0554679200698176	1.6897416595114503
0.36335707500000036	0.8742422061968247	1.0442453770052675	1.6689010823625865
0.3588718499999999	0.8902014156057604	1.0365894487202911	1.654229149662899
0.3543238000000003	0.9072036836498026	1.0327526627106718	1.6414418034544755
0.34971204687499996	0.9251097615117427	1.0294750027190982	1.6287839767896457
0.34503569687500074	0.943496771377144	1.0246275779431084	1.6160728755921572
0.3402938437500005	0.960999780760421	1.0201278542446144	1.6017279138167535
0.33548557187500094	0.9760555463211553	1.0180766299433637	1.5859338958803746
0.33060994687499945	0.9876032750318323	1.0185483345371802	1.571102252058676
0.32566603124999943	0.9949825925430893	1.0220410230390575	1.5586801750918915
0.3206528687500002	0.9981169539397698	1.030426713427528	1.5474701823781947
0.31556948125000117	0.9973306307326137	1.0448301968709888	1.5361698910427517
0.3104148874999999	0.9932194534244986	1.06233182728671	1.526330344425565
0.3051880968750001	0.986444832647288	1.0750027599086285	1.5201371742651322
0.29988809062500027	0.9775983781094183	1.0755606295123736	1.5143911127522256
0.2945138468749994	0.9675955455819358	1.065080228765511	1.5011011202688151
0.28906433437500006	0.9573480446365443	1.0519907777895654	1.477731030989008
0.2835384781249999	0.9473187915443012	1.0435510260913785	1.44908029921904
0.27793522187500025	0.9378059470594234	1.040773704570573	1.420480949907295
0.2722534843750002	0.928637013695569	1.0392597366576322	1.3953513008451421
0.26649215624999945	0.9191885357101218	1.0335390213808955	1.3758054923265608
0.26065013437499934	0.9089786199115907	1.0218636203357552	1.3641427425584953
0.2547262812499995	0.8977376151729012	1.00705649456991	1.363197208772705
0.24871944687499994	0.885244918302307	0.9944654228695659	1.3688489296685227
0.24262847812499932	0.8716617669826138	0.9858882640541046	1.3674162202043263
0.23645219062500059	0.8568575360600102	0.9741076700911819	1.3503666206800546
0.23018939062499996	0.8401919221521972	0.9527892073854111	1.3219802371940328
0.22383886874999995	0.8220045077239158	0.9282359433853692	1.2894367614955702
0.2173993906249998	0.8033622412915187	0.9105282494612171	1.2565434703812721
0.21086971874999982	0.7855489682774472	0.9009098720719649	1.2241935878332357
0.20424858125000028	0.7700238218425433	0.8967688379506923	1.194951685714734
0.1975346999999993	0.7570783615532278	0.8980017900622435	1.1758631812386096
0.19072677203125016	0.7469188031062309	0.9006524676684029	1.1716385904194888
0.18382349062500009	0.7407531743266801	0.9016515245200326	1.1782394909074985
0.1768235124999999	0.7384214895515498	0.9015116272910387	1.1877997385759795
0.1697254874999997	0.7390024833266722	0.8995035863594248	1.1926265259522189
0.16252803125000032	0.7428163313735886	0.8943519051502844	1.1880852286436299
0.15522976562500024	0.7502667363834226	0.8841298131254665	1.1763198149825271
0.14782927187500008	0.7602979000641696	0.8602244216768663	1.1632982540405437
0.14032511875000012	0.7695692466964881	0.8216543665307265	1.148695181118314
0.13271585312499953	0.7751805645985904	0.7868573858045519	1.1311866224642693
0.12500000000000008	0.7770772884400672	0.76692212299324	1.1134822708755394
0.11805555499999976	0.7748060987850455	0.757482084980452	1.0991318548147073
0.1111111112499997	0.7711009715056818	0.7536198885304412	1.0883516099425488
0.1041666662500002	0.7671112703864892	0.7484248225316356	1.0781606202541218
0.09722222250000022	0.7630500396848581	0.7409455479319761	1.0666180068704783
0.09027777749999989	0.758563870742109	0.7329694814649702	1.0511969235422403
0.0833333337499999	0.7535410893795321	0.7243929524599918	1.0304021273289412
0.07638888875000027	0.7483371566735488	0.71533339527272	1.004771947002053
0.06944444500000004	0.7431634035795871	0.7078619576270853	0.9759253293752532
0.06250000000000004	0.7382015778205566	0.7037394232498199	0.9469028627979331
0.05555555499999981	0.7341645251845932	0.7038050203122048	0.9220681322844156
0.04861111125000011	0.732109168697113	0.7089492549576734	0.9032914302284184
0.041666666249999915	0.7325339618338305	0.7187360153800715	0.8872855776323766
0.03472222250000002	0.7355861515598484	0.7321186112572526	0.8714462334561454
0.027777777499999906	0.7411760328497484	0.7489468176230636	0.8574028495522084
0.02083333374999994	0.7483676854857771	0.7670324673808199	0.8436682891954033
0.013888888749999953	0.755503048563906	0.7820044818372452	0.827623411752358
0.006944446656250006	0.7612347082185476	0.7906381379462866	0.8115355315407552
0.0	0.8594757664988854	0.6628881175233063	0.8093923401398152
