0.5000000000000003	0.0020645912608807816	0.10902921318030927	0.19537108227826566
0.49742875625000194	0.0024111539967415683	0.12532963729368368	0.17694554780846253
0.49482149687500077	0.016799834296141503	0.3181048896760377	0.5290774733472882
0.49217771875000144	0.0400575419855742	0.4687587177883039	0.890120055369019
0.4894969062499981	0.0684568239247123	0.5853127289976995	1.256384533126156
0.48677854687499983	0.09865687844287097	0.6707115711406376	1.6137786323260594
0.48402210937500056	0.12917377808885688	0.7268837928074727	1.9448367729310285
0.48122705937499843	0.16061225502510185	0.7583139816267583	2.2314570013053228
0.47839286562500044	0.19365929024580333	0.7723398932230908	2.4547509590911982
0.4755189656249995	0.22788330060153783	0.7787108563112466	2.601171462131322
0.47260480937499916	0.2633479933138056	0.7872843161921795	2.671225990517421
0.46964983750000083	0.3014237169726376	0.8027652196699568	2.6823460916484176
0.4666534749999997	0.3428663397729233	0.8221694494967086	2.6613060738492527
0.4636151437500017	0.38577896567953457	0.8395641871474087	2.629286831176467
0.460534253124999	0.4268100869833241	0.8516191729527999	2.5938089421412833
0.45741020937500093	0.46409992050144705	0.858799470088086	2.5539614591381676
0.4542424000000002	0.49810205864800283	0.8646451313992249	2.509159473927649
0.45103022812499977	0.5303397621899312	0.8738669137302263	2.4628131780709324
0.4477730562500009	0.561594062752708	0.8899925651181103	2.42012906288138
0.44447025937500095	0.5914671662422908	0.9147065913496658	2.382938500737678
0.441121206249999	0.618822198909585	0.9454707584351705	2.347044701316057
0.43772524062499985	0.6426172963076191	0.973846364274914	2.305852493541932
0.43428169999999944	0.6624361740586686	0.9919794170420748	2.2565874577895015
0.43078993437500107	0.6787952998714898	0.9996341967674877	2.202526443165231
0.42724925312500034	0.6930925450192588	1.0030125817338904	2.151711159937013
0.42365897499999994	0.7073690045142679	1.008315933111584	2.1136429453084564
0.4200184156249997	0.7235128624226341	1.0171996319566254	2.0921415788807036
0.4163268562499999	0.7423149750214745	1.028020600412412	2.0802146527552914
0.4125835906249998	0.7634114784848689	1.0393625271750058	2.066282630584336
0.408787890625	0.785496830604733	1.05046509461529	2.044704895014659
0.404939028125	0.8067159961549524	1.0597476998196778	2.0166100424286344
0.4010362531249997	0.825221336951358	1.0654918857970817	1.984838494684863
0.3970788062500005	0.8401682385187895	1.0672158838185601	1.952644695297436
0.39306592812500063	0.8520360826069651	1.0652252705113638	1.9232065872667312
0.38899684687499964	0.861603493663705	1.059536533761514	1.8960259802923047
0.3848707656249999	0.8695271694788932	1.0503610585865562	1.8662956638919668
0.3806868874999992	0.8762013989239213	1.0388687989933456	1.830580952096909
0.37644440312499916	0.8815229452672673	1.025979995781917	1.7894095584927001
0.3721424968749993	0.8847085296240296	1.0113225805017183	1.7443333190086814
0.36778033749999917	0.8846274221727906	0.9949589962764307	1.6970488514185398
0.36335707500000036	0.8809160388893897	0.9793119396056433	1.6501090725080856
0.3588718499999999	0.8748019568121049	0.9684833082998503	1.608097801193149
0.3543238000000003	0.8686752306230692	0.9646382889338576	1.5785174552812062
0.34971204687499996	0.8650352067050662	0.9646702886004241	1.56724990687743
0.34503569687500074	0.8652361680260077	0.9647330748046246	1.5705746510157599
0.3402938437500005	0.8685242126343233	0.9653372265652176	1.5761854863018276
0.33548557187500094	0.8724675041590829	0.9684949115837055	1.5749883395553397
0.33060994687499945	0.8742400291826006	0.9742087595807571	1.5675086515210432
0.32566603124999943	0.8720806298200744	0.9809512064119821	1.5576744242999454
0.3206528687500002	0.8663339787011873	0.9861816074706335	1.545798640237026
0.31556948125000117	0.8590995823679466	0.9863382322026117	1.5283528623766982
0.3104148874999999	0.8527144179717664	0.9789858194298251	1.5019980277373215
0.3051880968750001	0.8482390941941029	0.9655608312284125	1.467615931098007
0.29988809062500027	0.8454862959905675	0.9521317700708983	1.4296084805968539
0.2945138468749994	0.8441747999113719	0.9449871181039281	1.3914940262626623
0.28906433437500006	0.8446010264169592	0.9456260987844208	1.353654351781103
0.2835384781249999	0.8469698196068556	0.9518858558531936	1.3157874298166496
0.27793522187500025	0.8505009204095502	0.9602864119042915	1.2810687251402655
0.2722534843750002	0.8535859947762251	0.9663710626021265	1.2547955925906311
0.26649215624999945	0.8546428302427865	0.9673256293638574	1.2372307378332372
0.26065013437499934	0.8533869115293462	0.9641736131162372	1.2200114175401982
0.2547262812499995	0.8506450144305987	0.9597493113522233	1.1942663121490202
0.24871944687499994	0.847016311135539	0.9538202074941238	1.1595347965246943
0.24262847812499932	0.8428062514499975	0.9426333479860994	1.1223158904516433
0.23645219062500059	0.8386603805747094	0.9237049140267297	1.0910085622650545
0.23018939062499996	0.8355567663832324	0.8994781755401033	1.0721466959656574
0.22383886874999995	0.8342972972151568	0.8757349969030059	1.0681793156138515
0.2173993906249998	0.8348258860717117	0.8574697020339882	1.0752382889095842
0.21086971874999982	0.8359295005456425	0.8457116894503652	1.0847340796902025
0.20424858125000028	0.8353913026764804	0.836950893936787	1.0892760242643038
0.1975346999999993	0.8308289029483918	0.8257255092207685	1.0843684749012104
0.19072677203125016	0.8209385763879642	0.809646681720686	1.0686923619188182
0.18382349062500009	0.8058937360586647	0.7903625677710887	1.0464800501735103
0.1768235124999999	0.7872737293148493	0.7697163180331256	1.0243314019243088
0.1697254874999997	0.7669976869629995	0.7482478639509706	1.0048307391326252
0.16252803125000032	0.7467410138320716	0.725855271858072	0.9855210488212487
0.15522976562500024	0.7287026420641886	0.7035187589606008	0.9648278283123776
0.14782927187500008	0.715419162183209	0.6833009091076879	0.9437476432049574
0.14032511875000012	0.7080590563144675	0.6668102693893222	0.9235137549429072
0.13271585312499953	0.7046109175317893	0.6545868326880206	0.9070521612449296
0.12500000000000008	0.7023934794500672	0.6470642478027974	0.894588062447908
0.11805555499999976	0.6994535211113397	0.6441586073262148	0.8840307119956028
0.1111111112499997	0.6970649012898472	0.6452498614351783	0.8754750831391288
0.1041666662500002	0.6952386524299875	0.6489499773040197	0.8697106716916068
0.09722222250000022	0.6943710997428046	0.6551481057817418	0.8681063806436408
0.09027777749999989	0.6939093107202645	0.6626588729270978	0.871154337446123
0.0833333337499999	0.6928710162421279	0.6701738154868389	0.8773156485182244
0.07638888875000027	0.6902992909400752	0.6772316948270343	0.8830677478837506
0.06944444500000004	0.686334076485681	0.6845486666699857	0.8841523989472752
0.06250000000000004	0.6822771315836831	0.6919480568477459	0.8770895639335142
0.05555555499999981	0.680038455911463	0.6973004929868499	0.8600458542104171
0.04861111125000011	0.6809729290284656	0.6989744638916627	0.8348384297414584
0.041666666249999915	0.6845792143698264	0.69879565780761	0.8083076731042688
0.03472222250000002	0.6888142920651584	0.700032838626789	0.7889023343417726
0.027777777499999906	0.6919749110483275	0.7029237140104986	0.780151367427876
0.02083333374999994	0.6940040184554072	0.705444174652692	0.7795982526521871
0.013888888749999953	0.6957739073413236	0.706921910871851	0.784171654618103
0.006944446656250006	0.6977305560085237	0.7080866270291915	0.7923094491266862
0.0	0.7076007477030465	0.6986977989859338	0.7981545595170794
