0.5000000000000003	0.0018194656021855427	0.09068095289142299	0.22288545858977027
0.49742875625000194	0.0019303991390437086	0.0948796992015416	0.22754514829687225
0.49482149687500077	0.01509866845930598	0.2465387396790872	0.6826372128743426
0.49217771875000144	0.03760821952963524	0.3693717280958078	1.1346829766131676
0.4894969062499981	0.06666917213241143	0.4693112660521724	1.56510758834323
0.48677854687499983	0.09997837111606206	0.551005487420528	1.951758637071779
0.48402210937500056	0.13618655232351995	0.6174309969153458	2.277896232934478
0.48122705937499843	0.17462627433364028	0.672163249991836	2.5368262092283604
0.47839286562500044	0.21486132186990148	0.7202945297016435	2.730500703728782
0.4755189656249995	0.25641585293344143	0.7643130773383903	2.8652366298293206
0.47260480937499916	0.2984074641553875	0.8029884829026702	2.94953007007807
0.46964983750000083	0.3395079949786667	0.8359489195108399	2.9945928997728046
0.4666534749999997	0.37867795310726127	0.8649206602033198	3.0142719254567476
0.4636151437500017	0.41575663499016924	0.8911389041696631	3.021341585063473
0.460534253124999	0.4509669981000076	0.9139451300519301	3.0209863579601524
0.45741020937500093	0.48446211961151264	0.9312274793400981	3.0091604009921578
0.4542424000000002	0.5162638214475788	0.9407905202940657	2.9793879804353702
0.45103022812499977	0.5465039118152736	0.9420338329458958	2.9307452790245354
0.4477730562500009	0.575819238615642	0.9370364775657221	2.869800102460244
0.44447025937500095	0.6053510474459071	0.9300887179060888	2.8039405276009326
0.441121206249999	0.635636686756155	0.926408223958336	2.731628189083985
0.43772524062499985	0.6661873328983577	0.9308842546588825	2.643363757959335
0.43428169999999944	0.6965654518230416	0.945979789355387	2.5342973901918437
0.43078993437500107	0.7269829733124968	0.9692392283524178	2.4135403564377866
0.42724925312500034	0.7572329994118715	0.9935048723370492	2.2999515785001834
0.42365897499999994	0.7859409603972731	1.011580201666699	2.207807916565524
0.4200184156249997	0.8112612541145693	1.021509740350612	2.136003404023046
0.4163268562499999	0.8319008143729649	1.0269749450181116	2.072803067969181
0.4125835906249998	0.8473927697364084	1.032066395195833	2.0100961826118455
0.408787890625	0.8578816421610143	1.0365681914861955	1.9489380513317949
0.404939028125	0.8642176701102847	1.0374365955013922	1.895012201124646
0.4010362531249997	0.8674725417485639	1.0323664796521728	1.852556277496505
0.3970788062500005	0.8682427318656787	1.0204442041470463	1.8212664923193864
0.39306592812500063	0.8668017912388574	1.0024914779873708	1.7970304343870456
0.38899684687499964	0.8633531433488388	0.9826065902229296	1.7753249336618024
0.3848707656249999	0.8582089843375831	0.9677239044444903	1.7532410375583798
0.3806868874999992	0.8516709977189494	0.9626904848610286	1.7281037670331507
0.37644440312499916	0.8439226322660215	0.9656865932215126	1.6973807265084535
0.3721424968749993	0.8354328243734044	0.9718345103616869	1.6621123517758711
0.36778033749999917	0.8267305653003411	0.9783859852717797	1.6282040994327809
0.36335707500000036	0.8181035115777168	0.9845801506392534	1.6029913391744595
0.3588718499999999	0.810064907979741	0.9908874018261971	1.5904044908090518
0.3543238000000003	0.8035965893323213	0.9990519857125653	1.587426236631077
0.34971204687499996	0.7996377068097035	1.009971258215182	1.5861497289550945
0.34503569687500074	0.7981057854973498	1.0218610945275968	1.5795836857395786
0.3402938437500005	0.798107069840135	1.031047254812561	1.5646155906242791
0.33548557187500094	0.7987154614242662	1.0343024075324387	1.5413072439902433
0.33060994687499945	0.7999336273652565	1.0309879052104591	1.5112563588720334
0.32566603124999943	0.802694749911915	1.0231954587001935	1.476891104945254
0.3206528687500002	0.8077048318833341	1.0134893269841612	1.4415472823314257
0.31556948125000117	0.8147141046448358	1.0035514854265797	1.4091666868074757
0.3104148874999999	0.8226347052779833	0.9939267698510438	1.3824316458120245
0.3051880968750001	0.8301219958235471	0.9844921065878517	1.3613587835846475
0.29988809062500027	0.8362333765141501	0.9755462079297321	1.344006159011656
0.2945138468749994	0.8405801564576282	0.9677490636129468	1.3291611683348228
0.28906433437500006	0.8429436211260627	0.9607817624800143	1.317491997127108
0.2835384781249999	0.8428050504552663	0.9535061329948419	1.309853021658672
0.27793522187500025	0.8394610131786707	0.9443684386888517	1.3054512827856455
0.2722534843750002	0.8328951753055882	0.931262501699562	1.3018012167460937
0.26649215624999945	0.8240040340541038	0.9126840036692574	1.2958806354606627
0.26065013437499934	0.8140668297812759	0.888869711445968	1.2855166062066157
0.2547262812499995	0.8042013542025133	0.8613177244535347	1.2709724514377765
0.24871944687499994	0.7954847950159185	0.8317589698054397	1.2538244345282665
0.24262847812499932	0.7889226018584774	0.8028735231787969	1.2342018449783092
0.23645219062500059	0.7848285651855305	0.7797052385437538	1.212655572392671
0.23018939062499996	0.7819290332547796	0.7658504461919442	1.1911627290270492
0.22383886874999995	0.7785641782837838	0.760462938225729	1.1706920241855852
0.2173993906249998	0.774562419157512	0.7609781036352201	1.1513955306448993
0.21086971874999982	0.7700021426796657	0.7647171870555091	1.1351863862172733
0.20424858125000028	0.7638165365364594	0.7699118598702744	1.125410515711453
0.1975346999999993	0.7555203258848886	0.7770026193287082	1.1206567765547837
0.19072677203125016	0.7464249691653576	0.7854330949356014	1.1148832596903646
0.18382349062500009	0.7377913343363243	0.7922857263009062	1.1049018203357563
0.1768235124999999	0.7296882538538191	0.7939656083949465	1.0915235354814243
0.1697254874999997	0.7219273560513737	0.7881170095097298	1.077272938719092
0.16252803125000032	0.7143275949435058	0.7758900162340135	1.0651251602144045
0.15522976562500024	0.7067612012322531	0.7622934803167608	1.0566801502878762
0.14782927187500008	0.6994773786728103	0.7527396187181635	1.0504310357817728
0.14032511875000012	0.6927157186962216	0.750041264670976	1.043394297502367
0.13271585312499953	0.686621390046378	0.7513533808740367	1.031778240231601
0.12500000000000008	0.6819750762498312	0.750495039539072	1.0099549518452229
0.11805555499999976	0.6794287299792334	0.7442551092141904	0.9802962091778619
0.1111111112499997	0.6778296997193775	0.7349966935650225	0.9531814750275924
0.1041666662500002	0.6755173260616781	0.7245604190516293	0.9318243293993006
0.09722222250000022	0.6711806787211555	0.7164897687348208	0.9137227742614014
0.09027777749999989	0.6649376275888695	0.7109811501468778	0.8937418638326482
0.0833333337499999	0.6581642583494273	0.7068003123616322	0.8686324769520909
0.07638888875000027	0.6529669572949207	0.7045639232940103	0.8380297137365772
0.06944444500000004	0.6507628712536557	0.7052937074323288	0.8025197122966535
0.06250000000000004	0.6513985754934816	0.7074388674196128	0.7623172407498231
0.05555555499999981	0.6534282266977792	0.7086360944744575	0.7184122511863645
0.04861111125000011	0.6551362391255567	0.7086245087430623	0.6743058342091521
0.041666666249999915	0.6553527786694922	0.7075856026875249	0.6352663225209279
0.03472222250000002	0.6541299432372247	0.7040521684913054	0.6038330432413587
0.027777777499999906	0.6526110724311762	0.6961685231929429	0.5776036845996223
0.02083333374999994	0.6518625649495687	0.6839460879844764	0.5535649061781192
0.013888888749999953	0.6519809042391084	0.669921088969838	0.5320601781793822
0.006944446656250006	0.6520032827911737	0.6579084120975672	0.5155693440030161
0.0	0.6576292434874842	0.627571664640283	0.5099410993657443
