0.5000000000000003	0.001579548462826409	0.06784049017545891	0.21821280074163665
0.49742875625000194	0.0015643004505570305	0.08286974826477957	0.20919742524344404
0.49482149687500077	0.012727149220578963	0.21609917473689627	0.6288234838975698
0.49217771875000144	0.03219166679192691	0.3230481243973157	1.0352386328701024
0.4894969062499981	0.057869110581326544	0.4089346934499357	1.4051630428342032
0.48677854687499983	0.0875563462376515	0.47965406578200387	1.7271542016488093
0.48402210937500056	0.11958845489771362	0.5408798720357344	1.9998774928775
0.48122705937499843	0.15347339377962013	0.5968573414972419	2.2218294349260073
0.47839286562500044	0.1892791767408186	0.6492799105024357	2.3912846922903213
0.4755189656249995	0.22669798319527187	0.6965472630827422	2.5087916474838616
0.47260480937499916	0.265208285977862	0.7362628719466517	2.5783113120645322
0.46964983750000083	0.3043459386259045	0.7678465622754617	2.608543924157366
0.4666534749999997	0.3435232750217347	0.7914539578838347	2.610308360713662
0.4636151437500017	0.38215196767882076	0.8082969254668656	2.5915156824092347
0.460534253124999	0.41998826171906867	0.8223722871811721	2.556665208861384
0.45741020937500093	0.45697619115486077	0.8378593699341459	2.5102799559343936
0.4542424000000002	0.49267957597391837	0.8556335028582746	2.4586628374862025
0.45103022812499977	0.5261611619469514	0.8743543895155733	2.408157335891286
0.4477730562500009	0.5565934941335513	0.8930693408718827	2.3626535175795857
0.44447025937500095	0.5836373421930924	0.9114849366244508	2.3225639728128167
0.441121206249999	0.607312935366597	0.9293551368994027	2.2857323847924653
0.43772524062499985	0.627646083051704	0.9465584066890671	2.249462936134378
0.43428169999999944	0.6448344332075332	0.9635231644378236	2.2122316748317243
0.43078993437500107	0.6591859331314947	0.9810320163219994	2.17422336367287
0.42724925312500034	0.6707740681302883	0.9989089337431138	2.136445236331676
0.42365897499999994	0.6799919562408284	1.0149780535538298	2.0994482296870545
0.4200184156249997	0.6874886750983029	1.025989775824954	2.0628382747969565
0.4163268562499999	0.6937067274242517	1.0298132435722562	2.025771615296545
0.4125835906249998	0.6993019733431329	1.0269034814991826	1.9879966455926168
0.408787890625	0.7052051458708508	1.019891469879721	1.9498594731384125
0.404939028125	0.7122062106253978	1.012169772049719	1.911614229543928
0.4010362531249997	0.7205948482931194	1.0066893314637153	1.873777708431035
0.3970788062500005	0.7301892900110548	1.0050679771394766	1.8368768556031054
0.39306592812500063	0.7402207657241459	1.0070358018978747	1.799956725489787
0.38899684687499964	0.7494689416302165	1.0113845372474028	1.7610664607282984
0.3848707656249999	0.7569942984954396	1.0170110641481926	1.7195622089326832
0.3806868874999992	0.7626006699882931	1.022475219820111	1.6765690403251339
0.37644440312499916	0.766812234544556	1.0264254275822038	1.634896513957142
0.3721424968749993	0.7702605503840705	1.029497703891034	1.5992519934695393
0.36778033749999917	0.7731725419031039	1.0342449884377332	1.5725576457110737
0.36335707500000036	0.7753891946312086	1.0420001479608343	1.5518139555047514
0.3588718499999999	0.7763650501942513	1.0510661888269621	1.5330782181349643
0.3543238000000003	0.7753975593591025	1.0583742884008394	1.5187862771475653
0.34971204687499996	0.7723666361278271	1.0623207587138095	1.514407480181357
0.34503569687500074	0.7679878042282624	1.064245199060746	1.519791623521144
0.3402938437500005	0.7634172999754408	1.0673892644914869	1.5283238219101654
0.33548557187500094	0.7591692164663799	1.073760916316879	1.5330804594892617
0.33060994687499945	0.755091762271994	1.0820352162490192	1.531224756409144
0.32566603124999943	0.7513782698255499	1.0889491111852116	1.5239172924946511
0.3206528687500002	0.7487200561451582	1.091961062416855	1.5138371503254553
0.31556948125000117	0.747448440092632	1.0905547790459331	1.5019864442832918
0.3104148874999999	0.7471227489198339	1.0858974307535176	1.487221047170092
0.3051880968750001	0.7473413604082022	1.0792380990050805	1.4684668214598637
0.29988809062500027	0.7483375481942389	1.0707955195281391	1.446344760950784
0.2945138468749994	0.7505794073243944	1.0604206176090012	1.423559529300695
0.28906433437500006	0.7542500265002802	1.0484989768789843	1.403126922765768
0.2835384781249999	0.759184484155291	1.0367924000739694	1.3858563161214634
0.27793522187500025	0.7650957950981462	1.0281734859861946	1.3707384863181091
0.2722534843750002	0.7718071325011046	1.024813832733792	1.358456773907321
0.26649215624999945	0.7794771543517605	1.0260290692447094	1.3501711966944134
0.26065013437499934	0.7880734108840042	1.0275969307909276	1.3429286612175393
0.2547262812499995	0.7969779016814827	1.025466300120308	1.3333069834888132
0.24871944687499994	0.8054401833628825	1.0193366329360638	1.3217435176893173
0.24262847812499932	0.8126553699584108	1.010688142760981	1.3097848426108467
0.23645219062500059	0.8178157750148516	0.9988002913284968	1.298674617103394
0.23018939062499996	0.8202826510417469	0.9800007286030158	1.289699420912146
0.22383886874999995	0.8199866742832621	0.9516148196136494	1.2835750739582512
0.2173993906249998	0.8173788864664366	0.916044876184226	1.2839729137302789
0.21086971874999982	0.812850255818561	0.8794955755775309	1.2948457247072744
0.20424858125000028	0.8060927844613721	0.8461575081047715	1.3120166960339912
0.1975346999999993	0.7964430724642022	0.8143475260941204	1.3257319243304824
0.19072677203125016	0.7840378730032235	0.7803720178089626	1.331132837638132
0.18382349062500009	0.7703912660365323	0.7470047347384048	1.3322820858931048
0.1768235124999999	0.7574773866146766	0.7238782149371348	1.3331089262867264
0.1697254874999997	0.7461735235881538	0.7147483297005572	1.334268839053942
0.16252803125000032	0.7365719839275536	0.712972073756542	1.329430459691841
0.15522976562500024	0.7277986111641443	0.7119756950425955	1.3072000879158399
0.14782927187500008	0.7199741404445117	0.7084270779057648	1.2627768745543522
0.14032511875000012	0.7150142896974723	0.701653769448718	1.2045530836766323
0.13271585312499953	0.7140818110344689	0.6915749992595535	1.147415755394776
0.12500000000000008	0.7164383686461103	0.6764420773323464	1.0976541085527065
0.11805555499999976	0.7217739991000985	0.6566935886779004	1.0530969041538945
0.1111111112499997	0.7288905169529926	0.6397605907607822	1.0127924605662684
0.1041666662500002	0.7371412331853232	0.6315682306676546	0.9737876459001763
0.09722222250000022	0.745259003774779	0.6361845170409559	0.9354591441408768
0.09027777749999989	0.7519906991060137	0.6508949422147967	0.8998062011815757
0.0833333337499999	0.7560896108986648	0.6694235472525204	0.8688493020105208
0.07638888875000027	0.7565933999314715	0.686350359712209	0.8420059963666471
0.06944444500000004	0.7533756777526859	0.6988632711644537	0.817829677300344
0.06250000000000004	0.7476007122891858	0.7062132283686702	0.794300554023044
0.05555555499999981	0.7411373322400114	0.709278056770717	0.7681655572272883
0.04861111125000011	0.735843792419459	0.7105971662052935	0.7385673062283612
0.041666666249999915	0.7331374985019662	0.7132919091432699	0.708878575589634
0.03472222250000002	0.7333120837451437	0.7188442159863548	0.6832095437548461
0.027777777499999906	0.7355489007474361	0.726363631789057	0.6632929445970709
0.02083333374999994	0.7386408383729353	0.7335609491701424	0.6488838222591836
0.013888888749999953	0.7415763391575723	0.7382706092585111	0.6393730873478293
0.006944446656250006	0.7436087991212073	0.7398529699544911	0.6339655859345225
0.0	0.699749923290039	0.7755657927586778	0.636567694878337
