0.5000000000000003	0.003395660002270263	0.12454076458968738	0.19274765535152263
0.49742875625000194	0.0032577273223647466	0.1262801551891927	0.20241951731507074
0.49482149687500077	0.020847109311011754	0.3144679549837267	0.6136324358083354
0.49217771875000144	0.048222011081631926	0.44569409706109925	1.0254838559652066
0.4894969062499981	0.08351258529281459	0.5394399025803399	1.403701106056068
0.48677854687499983	0.1255398263738567	0.6175757142379265	1.7162828339483773
0.48402210937500056	0.17140506675877648	0.6852231687079682	1.9686217730829172
0.48122705937499843	0.21716137440450525	0.7350769898685605	2.1795619523470733
0.47839286562500044	0.26202454680249837	0.7684881724342372	2.34726365024072
0.4755189656249995	0.3093361670466161	0.7976028837743945	2.466700322971663
0.47260480937499916	0.3611734360944276	0.829795098547142	2.5435960814081096
0.46964983750000083	0.4152680757505082	0.8626087082058422	2.5837124059346053
0.4666534749999997	0.46784075924024104	0.8939817029726161	2.5893362799401043
0.4636151437500017	0.5162330475377106	0.9263868819252074	2.5657991829022495
0.460534253124999	0.5589339588841764	0.960742342556119	2.523046656745953
0.45741020937500093	0.5956858563562768	0.9925936529324456	2.471685808272571
0.4542424000000002	0.6267769268636468	1.016039051762806	2.419324031211267
0.45103022812499977	0.6522047391439956	1.0291789053670717	2.37133133868657
0.4477730562500009	0.6717478275694817	1.0337086965576574	2.3305465499594478
0.44447025937500095	0.6854069424802174	1.0319021726146893	2.2930741552859226
0.441121206249999	0.6940284363112359	1.0251133886428245	2.2512587081697872
0.43772524062499985	0.6992865515725238	1.0144533061153702	2.2031813257931954
0.43428169999999944	0.7027117635625759	1.0034205911704666	2.155175557187746
0.43078993437500107	0.7053848136381788	0.9987853199610411	2.114556267995158
0.42724925312500034	0.707831286887603	1.0062536301994305	2.0838089435161167
0.42365897499999994	0.7106288328225431	1.0255427783361488	2.0602400567815042
0.4200184156249997	0.714788572203539	1.0510752291516174	2.0366436699755894
0.4163268562499999	0.7210256932856509	1.0773107872017087	2.00511999634374
0.4125835906249998	0.7289552726417294	1.101587131508574	1.962722942702015
0.408787890625	0.7370664963294385	1.1222038267703	1.9115745306996723
0.404939028125	0.7434102909771272	1.1362552661117788	1.8543602383891244
0.4010362531249997	0.7470255739465613	1.1404037260015487	1.7953406753052736
0.3970788062500005	0.748692306788321	1.134338806716077	1.7434076299091794
0.39306592812500063	0.7503534564124118	1.122565149243619	1.7073619914105527
0.38899684687499964	0.753236903545325	1.1110466983335692	1.6873397908517773
0.3848707656249999	0.7566743757848826	1.1029233554409643	1.6762053695845307
0.3806868874999992	0.7590295942625264	1.0972889361381397	1.667788277267727
0.37644440312499916	0.7591846945360015	1.0915496031661334	1.6577395325299378
0.3721424968749993	0.7567520101654147	1.0838393078785618	1.642155579363742
0.36778033749999917	0.7519222074510152	1.0727037254242233	1.6204794149267934
0.36335707500000036	0.7455474017846134	1.0570645782296626	1.597162532905659
0.3588718499999999	0.7387974091750729	1.0376538762753724	1.5777157680647418
0.3543238000000003	0.7327614612661967	1.0175227640948192	1.5623335116614678
0.34971204687499996	0.7279187734846766	1.0009120165873786	1.5459068885207228
0.34503569687500074	0.7243154874992899	0.9911767162555991	1.526384859184328
0.3402938437500005	0.7218642829093421	0.9884208344604515	1.5076125273282315
0.33548557187500094	0.7205689789905427	0.9891335266874903	1.493030463558034
0.33060994687499945	0.7206759518425312	0.9889017143381118	1.4823371131886838
0.32566603124999943	0.72237424885781	0.9869418235767395	1.473196362046466
0.3206528687500002	0.7258530177927138	0.9856447801296162	1.4621384979928354
0.31556948125000117	0.7311059862306842	0.9857137578275279	1.445504463135282
0.3104148874999999	0.737594211311516	0.9850619175646822	1.424968040682068
0.3051880968750001	0.7449173443241595	0.9808110096808245	1.4063346807086128
0.29988809062500027	0.7532760683024399	0.9718990825144291	1.3894758859454837
0.2945138468749994	0.7628839726600767	0.9586439482898328	1.372526101720775
0.28906433437500006	0.7730280971986768	0.9402570213624011	1.3571035190349172
0.2835384781249999	0.7816358613414819	0.916528081419516	1.344001379226522
0.27793522187500025	0.7860797616922958	0.8918144393625086	1.330632560913755
0.2722534843750002	0.7850314939155724	0.8718947894393515	1.3123016449118408
0.26649215624999945	0.7794141764155813	0.8570145151477969	1.285753286762576
0.26065013437499934	0.7712932882933627	0.8437487919777101	1.253456948838456
0.2547262812499995	0.762065239139979	0.8306258481233427	1.2235912483095328
0.24871944687499994	0.7522025798950464	0.8184074710788722	1.2028346608128972
0.24262847812499932	0.7425001226565651	0.8085526975072592	1.1942094011447628
0.23645219062500059	0.7345513555746661	0.8035443019442194	1.1989791058964332
0.23018939062499996	0.7301527161945801	0.8057859702375149	1.2138458318506193
0.22383886874999995	0.7303350138590746	0.8140808002343122	1.229499891434516
0.2173993906249998	0.7346637912253692	0.8232212378139556	1.2356672162926257
0.21086971874999982	0.7408078216183506	0.8284240816502344	1.2278047325889991
0.20424858125000028	0.7452669797792822	0.8288699368035316	1.2086852661857985
0.1975346999999993	0.7460784552490891	0.8247084987703478	1.1827493261696758
0.19072677203125016	0.7441890548848292	0.8157667651873141	1.153199339836286
0.18382349062500009	0.7410765904640174	0.8041264642203517	1.1220220560404914
0.1768235124999999	0.7369189742474515	0.7932242733206458	1.0889340204973004
0.1697254874999997	0.7310872871520859	0.7841896273184291	1.051994885396683
0.16252803125000032	0.7231279064982039	0.7750113733797919	1.0103896978316473
0.15522976562500024	0.7131908567777012	0.7621835578873895	0.9670853272930412
0.14782927187500008	0.7020880610979082	0.744681723288494	0.9263805912006001
0.14032511875000012	0.6905148530691542	0.7276297883337098	0.891040059905988
0.13271585312499953	0.6789550394554206	0.7165019342171821	0.865236463173807
0.12500000000000008	0.6698777310001695	0.7103728030996724	0.8491750580320679
0.11805555499999976	0.66547934550958	0.7055758158367172	0.8355681765818118
0.1111111112499997	0.6648393488758282	0.7003398977620655	0.8197044877725759
0.1041666662500002	0.6658984390389964	0.6922299367812657	0.8008348687198239
0.09722222250000022	0.6660707240912992	0.6808893403133351	0.7825252978815969
0.09027777749999989	0.663631515215885	0.6676939081026384	0.766718497726517
0.0833333337499999	0.6578882071259702	0.6551596063401206	0.751382690928611
0.07638888875000027	0.6491147873450084	0.6445956215478119	0.7334839470181134
0.06944444500000004	0.6383428815085641	0.6353338383826342	0.7144056756040764
0.06250000000000004	0.626691312101467	0.6262274578035761	0.6995460199083074
0.05555555499999981	0.6147834805432361	0.6168791081497347	0.6921441650348757
0.04861111125000011	0.6029909811990757	0.6076459081938395	0.6908733801971987
0.041666666249999915	0.5917227251269778	0.5989935565021719	0.6928892802990165
0.03472222250000002	0.5813157843999208	0.5908723516521104	0.6961544071593846
0.027777777499999906	0.5721526982548112	0.5822841234863021	0.6994080554534162
0.02083333374999994	0.5646553140241949	0.5719390767226127	0.7018458234233309
0.013888888749999953	0.5588907170470141	0.5596945731742974	0.7035015664112383
0.006944446656250006	0.554217184385747	0.5475120350436063	0.7048262818649486
0.0	0.5411662736094819	0.5206789023505647	0.7080412630446951
