0.5000000000000003	0.0014892932194248455	0.07471139228162628	0.19818043133403748
0.49742875625000194	0.0015831637807477573	0.08058188133116627	0.19144345705951948
0.49482149687500077	0.011969819691670918	0.21631384754000338	0.5766297522420453
0.49217771875000144	0.029348311326352898	0.32891385061054795	0.9607878774823683
0.4894969062499981	0.051700355872656034	0.41993146856235597	1.3304971791178077
0.48677854687499983	0.07748751730431208	0.49258504325405456	1.6692040549520333
0.48402210937500056	0.10578064528824661	0.550932862336217	1.9629289063478923
0.48122705937499843	0.13586473486565773	0.5992393173507765	2.2035920505282363
0.47839286562500044	0.16706515390277385	0.6418237858165666	2.3897027452101836
0.4755189656249995	0.1988682310151988	0.6815680212861227	2.526771947897158
0.47260480937499916	0.23118489541108056	0.7188109573193718	2.624562547996925
0.46964983750000083	0.2644994763979599	0.7533091813197325	2.690445648523835
0.4666534749999997	0.29957782602059063	0.7869034098908481	2.725921216035374
0.4636151437500017	0.33702760588790504	0.8222254650852578	2.7310498190555563
0.460534253124999	0.3766190747802189	0.8584613080975799	2.7104847285821787
0.45741020937500093	0.4168555554328398	0.891109440405173	2.6758743529852107
0.4542424000000002	0.4556138040398706	0.9164824892253145	2.6427915852379047
0.45103022812499977	0.49105580578316743	0.9344504667934481	2.6196299532074994
0.4477730562500009	0.5227159707758273	0.9475416244390762	2.5993790304122775
0.44447025937500095	0.5522730243720112	0.9591609888800857	2.569363055727281
0.441121206249999	0.5822466551315024	0.9718882888720963	2.5261801161816235
0.43772524062499985	0.6137269124173497	0.9865447416453379	2.4754702511367284
0.43428169999999944	0.6455947601252278	1.002442776535566	2.421960920536886
0.43078993437500107	0.6757562780084392	1.0174988010098909	2.3657705582831157
0.42724925312500034	0.7027748936615568	1.0292339347461061	2.306608815888767
0.42365897499999994	0.7263492647032743	1.0372184636962765	2.2470389322328037
0.4200184156249997	0.7466850549046037	1.0442751746338181	2.189504197166881
0.4163268562499999	0.7640727265243137	1.0542855880990334	2.133926155577368
0.4125835906249998	0.7788103993850699	1.0681546824754868	2.080365227886394
0.408787890625	0.7911068631177324	1.0827319753657818	2.029480229514939
0.404939028125	0.8009277002605937	1.0949772847691295	1.9791310409843075
0.4010362531249997	0.8079123100485768	1.1051219531053935	1.92415190924439
0.3970788062500005	0.8120492525918109	1.113451568629036	1.8614269129062484
0.39306592812500063	0.8140611540121181	1.1182364433884666	1.7939481589215132
0.38899684687499964	0.8143989538471115	1.1200460450961567	1.7275089249906284
0.3848707656249999	0.8135077440709961	1.1201796039125729	1.6642434739517884
0.3806868874999992	0.8120386187887467	1.1164829858003664	1.6044700279113002
0.37644440312499916	0.8109171802764509	1.1071015531997377	1.552266914209443
0.3721424968749993	0.8108725203043307	1.0925420251093532	1.51158174381429
0.36778033749999917	0.8119959512557062	1.0747779348635684	1.4812340365049153
0.36335707500000036	0.8139379376732938	1.0557731007213225	1.4556587241671493
0.3588718499999999	0.8163866196702162	1.0366225326944076	1.4270829807960086
0.3543238000000003	0.8190380119632111	1.018008355093963	1.3924673535171679
0.34971204687499996	0.8213076157071104	1.00069805835275	1.3568770140870274
0.34503569687500074	0.822579258905267	0.9853666438522963	1.326048498819311
0.3402938437500005	0.822564832612497	0.9721334586548761	1.3023797222808204
0.33548557187500094	0.8215291077079622	0.9605089756651994	1.2863741830664335
0.33060994687499945	0.820125494219053	0.9506932996643058	1.2774132519854886
0.32566603124999943	0.818844375055867	0.9439392957910252	1.27463731044995
0.3206528687500002	0.8179313110155566	0.9404134593506931	1.2772885470402615
0.31556948125000117	0.8173976097448392	0.9381410514596644	1.2846872204255624
0.3104148874999999	0.81682902001371	0.934588670002194	1.2963517773172284
0.3051880968750001	0.8152296739315168	0.9266723312240114	1.311703908933541
0.29988809062500027	0.8112344875035676	0.9112103747305091	1.3304592455043844
0.2945138468749994	0.8043993703166608	0.8883804171857406	1.3529537117162194
0.28906433437500006	0.7964424557146389	0.8630309575479437	1.3795744180580782
0.2835384781249999	0.7895303205241302	0.8408611167509763	1.4092763154422834
0.27793522187500025	0.7842427649617002	0.8256089638285784	1.437939240636512
0.2722534843750002	0.7805395592864109	0.8198482020437249	1.4615708638134528
0.26649215624999945	0.7779243843122673	0.8235322406226759	1.47741455540075
0.26065013437499934	0.7752648374880705	0.8310513921338377	1.484013372746941
0.2547262812499995	0.7715430331775422	0.8344927634706102	1.4821319489177498
0.24871944687499994	0.7665971411637569	0.830471565446569	1.4739833592651599
0.24262847812499932	0.7609678214629498	0.8222261589938981	1.4618354977108041
0.23645219062500059	0.7548707662695436	0.8146558921839554	1.4466202715020944
0.23018939062499996	0.7476638734820352	0.808371303344564	1.430256277552095
0.22383886874999995	0.7388150710950028	0.8001200603947922	1.41721499694939
0.2173993906249998	0.728749490944634	0.7878160191063125	1.4106354963455028
0.21086971874999982	0.7184436416505524	0.7731536514824314	1.4112448270398952
0.20424858125000028	0.7091790570016326	0.7598184446411662	1.4150955447405926
0.1975346999999993	0.7025444404834327	0.7496921860420172	1.4159482422341072
0.19072677203125016	0.6986727594636898	0.7418235963040255	1.4121345193549706
0.18382349062500009	0.6961439787315672	0.7358514045974537	1.4044864009397258
0.1768235124999999	0.6942789287410757	0.7329880771151621	1.3930027750190965
0.1697254874999997	0.6932641127950651	0.7329064134733835	1.3752393263854752
0.16252803125000032	0.6925359264658303	0.7310656059450766	1.3472534405130756
0.15522976562500024	0.6914479514399382	0.7236546198678766	1.3127891097507682
0.14782927187500008	0.6900114904047674	0.71471083287506	1.2780064743992106
0.14032511875000012	0.6869932069313147	0.7082472675114453	1.2429080177979113
0.13271585312499953	0.6807518674081371	0.7014701382925197	1.2088337274554277
0.12500000000000008	0.6715752948053518	0.6914900700719738	1.175966365666666
0.11805555499999976	0.6614678763067438	0.6795744559313497	1.140286895691124
0.1111111112499997	0.6520496555240919	0.6706793480475269	1.1020577414996473
0.1041666662500002	0.6434344716634128	0.6631792265400314	1.0606771614767887
0.09722222250000022	0.6354344996261434	0.655690073181044	1.0186505226061138
0.09027777749999989	0.6280102939690597	0.6472262997469062	0.979600046301151
0.0833333337499999	0.6215380370479209	0.6378878464700178	0.9460957147866903
0.07638888875000027	0.6163454584320502	0.6282658803187107	0.9162471825067179
0.06944444500000004	0.6127158146404337	0.6191634806926491	0.8857492480628545
0.06250000000000004	0.6105535014587786	0.6115729361647552	0.8531106009003793
0.05555555499999981	0.6092189865181074	0.606170794392085	0.8197735052772464
0.04861111125000011	0.6077575988406972	0.6028918799933146	0.7868191791459431
0.041666666249999915	0.6054378446659435	0.6011375432004773	0.7539696518021558
0.03472222250000002	0.6020706461173609	0.5998553560428465	0.7211796986700092
0.027777777499999906	0.5978938136937296	0.5977681994252795	0.689719191628537
0.02083333374999994	0.5932770550535057	0.5941272043088902	0.6613197481135721
0.013888888749999953	0.5885243090936935	0.5891626698406655	0.6373492179267373
0.006944446656250006	0.5839430247960937	0.5838891800007743	0.6198700147063034
0.0	0.5056833978663218	0.6291064875843808	0.6249052843653757
