0.5000000000000003	0.001976297863854807	0.09418288354876253	0.15697696488855434
0.49742875625000194	0.001584916393224138	0.0922132205852292	0.14580085218946034
0.49482149687500077	0.012920617337067139	0.23644631494446527	0.4375943184987316
0.49217771875000144	0.032819636059936194	0.3533408837806657	0.7331377379088531
0.4894969062499981	0.05947150830638748	0.45177865692412006	1.0275463423227287
0.48677854687499983	0.09173984174241583	0.5394258988384207	1.310787283170083
0.48402210937500056	0.1287769878252064	0.6199666870483025	1.570628424716739
0.48122705937499843	0.1690386206443259	0.6924441022374577	1.7972279972654406
0.47839286562500044	0.21016994747138748	0.7556613642818383	1.9865593695915027
0.4755189656249995	0.2503990546956867	0.8106490711244718	2.13944024090498
0.47260480937499916	0.2896478652793855	0.8586093663129002	2.2572624885315973
0.46964983750000083	0.328961753624601	0.8994008871745282	2.341869459278427
0.4666534749999997	0.36918038844799633	0.9330581998096942	2.3980525477298893
0.4636151437500017	0.40996887483800426	0.9607104097122632	2.430055863015197
0.460534253124999	0.4501930710036798	0.9828843453242639	2.438417234599843
0.45741020937500093	0.48908143145026756	0.9978816839794495	2.4247138054106605
0.4542424000000002	0.5266905624625692	1.003909467801452	2.3971485821172043
0.45103022812499977	0.5632181661389009	1.0029287800970956	2.367755129717275
0.4477730562500009	0.5981024349700037	1.0003031021497601	2.342810293417976
0.44447025937500095	0.6298557879286254	0.9999896103954748	2.317482124548427
0.441121206249999	0.6570554334443617	1.0014671953747307	2.282369540485178
0.43772524062499985	0.6792328241710568	1.0016830505278094	2.2344895411785153
0.43428169999999944	0.6967592372206061	0.9986028658101853	2.1814762479822645
0.43078993437500107	0.7102185216402814	0.9923812026230545	2.1343108635418715
0.42724925312500034	0.7204806582054402	0.9843844649209024	2.0954623239386523
0.42365897499999994	0.7290505637970951	0.976171059429922	2.056958391382979
0.4200184156249997	0.7375182164994557	0.9687149353159062	2.0115849147761815
0.4163268562499999	0.7458713628670444	0.9630583744387538	1.961064992708893
0.4125835906249998	0.7527852098039161	0.9621343891726079	1.9138426676795863
0.408787890625	0.7572266998866514	0.9685685645222539	1.8760820803296372
0.404939028125	0.7593700346720537	0.9810658819834501	1.8446930757521753
0.4010362531249997	0.7603782991547313	0.9965109022462417	1.8116075098281825
0.3970788062500005	0.7614227670716088	1.011265005372866	1.7713544861695127
0.39306592812500063	0.7626763622370171	1.0212499022020782	1.721300187136884
0.38899684687499964	0.7632240530290232	1.0276148095436115	1.6639790481957482
0.3848707656249999	0.7624524115818958	1.0349392097094516	1.6097142854641977
0.3806868874999992	0.7609061024368837	1.0425929074533895	1.5665682707812152
0.37644440312499916	0.7593950667856996	1.0487130240518439	1.5332184618050362
0.3721424968749993	0.7583363579408495	1.0538855795474036	1.5028574908346493
0.36778033749999917	0.757352887441919	1.0565033386177514	1.4666207308431523
0.36335707500000036	0.7551044366416687	1.0528259606114443	1.4190517241567315
0.3588718499999999	0.7509873389477068	1.0419962756494956	1.3648331500488005
0.3543238000000003	0.7466395234492125	1.0294153199032963	1.3156883028506983
0.34971204687499996	0.7440570185934929	1.022704214739081	1.2789393569817677
0.34503569687500074	0.7443329874729329	1.023257129586566	1.2538006354818845
0.3402938437500005	0.7469461034920143	1.0280418321206344	1.2384777357022851
0.33548557187500094	0.7512419350519947	1.0345872169911505	1.2265536273852113
0.33060994687499945	0.7572373149584924	1.0407457950370012	1.2090650594294972
0.32566603124999943	0.7644866624770109	1.0433017008411969	1.1866748765670132
0.3206528687500002	0.772477687375008	1.0393100684227086	1.1672665271273623
0.31556948125000117	0.780435154731156	1.0271169334780137	1.1556931903884127
0.3104148874999999	0.7869970315400764	1.0067360422011855	1.1496106805032247
0.3051880968750001	0.7907572813942382	0.9796012098284301	1.1430129435547192
0.29988809062500027	0.7911491833109506	0.9472259365082139	1.1319036246617262
0.2945138468749994	0.7884331683710689	0.9113113233593119	1.1170472653749095
0.28906433437500006	0.7835017190488002	0.8758400327523825	1.1025790759932703
0.2835384781249999	0.7777186208229516	0.8463209398874606	1.0916259621038462
0.27793522187500025	0.7724813603210257	0.8264179722251681	1.084440873405329
0.2722534843750002	0.7685288117688244	0.8171222869152703	1.079696360616883
0.26649215624999945	0.7656326023686618	0.8177438604640948	1.0764244898989352
0.26065013437499934	0.7630774873215256	0.825389052732235	1.0740497814311436
0.2547262812499995	0.7600607453053664	0.8348181841757709	1.071202037979758
0.24871944687499994	0.7558264078522816	0.8404932518878089	1.0662570176896708
0.24262847812499932	0.7499264942148371	0.8393952375052594	1.0593618673048073
0.23645219062500059	0.7430340019855495	0.83375908970433	1.0528262246312052
0.23018939062499996	0.7373488287958596	0.8282526369874882	1.0485430169104553
0.22383886874999995	0.7349971962232644	0.8215717108756967	1.0451421056952852
0.2173993906249998	0.7355264085672503	0.8132823757923084	1.038788703663953
0.21086971874999982	0.7365795143317612	0.8064670123456765	1.0270261469000481
0.20424858125000028	0.7365635797754708	0.8010341418938437	1.0120173525909113
0.1975346999999993	0.7347815960307489	0.7943648527275543	0.9983531512705527
0.19072677203125016	0.7311857323431551	0.7850920261259758	0.9871210257836976
0.18382349062500009	0.7264054232154536	0.7735191885070438	0.9748590188541983
0.1768235124999999	0.7216125984026649	0.7599255143822485	0.958125337720054
0.1697254874999997	0.7179235417808271	0.7446084414021951	0.9372415481643818
0.16252803125000032	0.7156965923987046	0.7300986203862725	0.9146576741938142
0.15522976562500024	0.7145463593599456	0.7209957048484639	0.8923868980479762
0.14782927187500008	0.7140971176933945	0.7203270366068514	0.8721040050097957
0.14032511875000012	0.7138601688511258	0.7249067443109228	0.8524204841604601
0.13271585312499953	0.7123544211380618	0.7267426899460303	0.8316489125649346
0.12500000000000008	0.7070440007950227	0.7198771525718936	0.8091448288064671
0.11805555499999976	0.697536462304156	0.704411230161181	0.787975611520141
0.1111111112499997	0.6856854803586634	0.6864986197901555	0.7694278658866707
0.1041666662500002	0.6711854511057568	0.6683248411014427	0.7512784177281719
0.09722222250000022	0.653862567861614	0.6517297582965351	0.7339310421890025
0.09027777749999989	0.6341667651748428	0.6365312320766939	0.7177793422567299
0.0833333337499999	0.6136300479939956	0.6221885660079782	0.7016547513147751
0.07638888875000027	0.5941213564002618	0.6086112369763911	0.6847814530401032
0.06944444500000004	0.5771633312588169	0.5966731773164219	0.6679249671411962
0.06250000000000004	0.5635873458439582	0.5873696842701345	0.6521038998251694
0.05555555499999981	0.553590697893916	0.5807639425520843	0.6375631248558761
0.04861111125000011	0.5468140755851544	0.5757727345509468	0.623644165665381
0.041666666249999915	0.5426047518410176	0.5704448949578041	0.6092056797808143
0.03472222250000002	0.5403709321393373	0.5630845895974482	0.5935595060504795
0.027777777499999906	0.5396321256644289	0.5536374948291348	0.5770761761250274
0.02083333374999994	0.5397739576326801	0.5437205408840803	0.5611646157761567
0.013888888749999953	0.5400854802035864	0.5350755502531183	0.5478015809262989
0.006944446656250006	0.5397969554649922	0.529172556096101	0.5384989056275702
0.0	0.530867164126696	0.5336690368632472	0.539392813229643
