0.5000000000000003	0.0014508520452871814	0.09710128578303724	0.20232904246807826
0.49742875625000194	0.0014147709121452026	0.09039424897675344	0.19304890964468596
0.49482149687500077	0.011047793646099528	0.23387006100309413	0.5789393724780957
0.49217771875000144	0.027521855563964127	0.3463028195004007	0.9709169955401326
0.4894969062499981	0.049057981360825904	0.4321271282489164	1.3592420012269613
0.48677854687499983	0.07436742199369413	0.4956503985635213	1.7197262111323188
0.48402210937500056	0.10291196471976649	0.5420531473885256	2.020173690383687
0.48122705937499843	0.13464456137587458	0.5787816378057089	2.241902701166606
0.47839286562500044	0.16893571446627292	0.6129823451058027	2.39393086582407
0.4755189656249995	0.2041407851462592	0.6473366405429262	2.4950892735610606
0.47260480937499916	0.2390927314112995	0.6790043183184795	2.5506382358091946
0.46964983750000083	0.27412384222098174	0.7045252487332058	2.5581171001062017
0.4666534749999997	0.30969093028607436	0.7262494967827032	2.5272341093015784
0.4636151437500017	0.3443644648493721	0.7496981729501411	2.480383951814461
0.460534253124999	0.3761428771370496	0.7767129112547196	2.4366058740825824
0.45741020937500093	0.40473809936410404	0.8057480902559612	2.4008116827242008
0.4542424000000002	0.43084783535347065	0.8350551936333628	2.3660890424947527
0.45103022812499977	0.45494784523298154	0.8630610864660343	2.325951988280483
0.4477730562500009	0.4776459148624093	0.8875576886483157	2.284471282964105
0.44447025937500095	0.4997761814532643	0.9054937685863251	2.25268187354652
0.441121206249999	0.5217227619885032	0.9137736208605418	2.2368811218649753
0.43772524062499985	0.5431890509784332	0.9111706865331377	2.2327559324761874
0.43428169999999944	0.5637938181484873	0.900206270195922	2.2301588656341416
0.43078993437500107	0.5837032834624456	0.8871901039351655	2.219896928305693
0.42724925312500034	0.603567441638234	0.8796883034908937	2.19600776164799
0.42365897499999994	0.6241349875465133	0.8826811660695606	2.1583133648884396
0.4200184156249997	0.6455935327276602	0.8960846030954139	2.1136848857213333
0.4163268562499999	0.6675947931875436	0.9157577116552109	2.070640878527253
0.4125835906249998	0.6894650717590052	0.9375165279915348	2.0326499245873206
0.408787890625	0.7105641623818602	0.9602235489141981	1.9968467931763687
0.404939028125	0.7302884075680969	0.9844896036373684	1.9590029193783043
0.4010362531249997	0.7480914097159741	1.0098201001473828	1.9185194769323994
0.3970788062500005	0.7635309702862685	1.0343889234059136	1.8781147731128875
0.39306592812500063	0.7762925971874898	1.056077667093914	1.8408005049085971
0.38899684687499964	0.7864341713525367	1.0728121631513132	1.8067019951127454
0.3848707656249999	0.7946027397471647	1.082788856429469	1.7731046561641486
0.3806868874999992	0.8016188106708447	1.0854393258923245	1.738393185653021
0.37644440312499916	0.8078101159967863	1.0823933255854243	1.7036438694557279
0.3721424968749993	0.8130936828072636	1.0775992291014678	1.6701886733814435
0.36778033749999917	0.8174016240801524	1.0762685792345104	1.6378773907706599
0.36335707500000036	0.820452379004839	1.0817372353005241	1.6056703949544775
0.3588718499999999	0.8216141564603063	1.092510503643569	1.5735495458720015
0.3543238000000003	0.8203147340775293	1.1038518801988637	1.5440427534485281
0.34971204687499996	0.8164225307751012	1.1115938744374667	1.5209828047532385
0.34503569687500074	0.8103234094526186	1.1133205808918858	1.505456097732687
0.3402938437500005	0.8024777510877987	1.1080479843493205	1.4930769611134298
0.33548557187500094	0.7930514854900176	1.0961411573149047	1.4764194293809878
0.33060994687499945	0.7823685645214413	1.0790500923032935	1.4499491059965735
0.32566603124999943	0.7713939069319459	1.0588830904215314	1.413859214709907
0.3206528687500002	0.761233003977535	1.0379120450510415	1.3733753776322168
0.31556948125000117	0.7524985725917412	1.0175554391817456	1.3346078138303752
0.3104148874999999	0.7457197985437276	0.9987714463160041	1.3021642458251999
0.3051880968750001	0.7411242617884524	0.9838613318024017	1.2785242707810702
0.29988809062500027	0.7378866615822026	0.9752634026260599	1.2629278316674752
0.2945138468749994	0.7343721427059333	0.9725511314755956	1.2520127171039863
0.28906433437500006	0.7294186627350229	0.9729186275099788	1.2428153046547141
0.2835384781249999	0.7231430521172642	0.9742102937465531	1.2355979775895245
0.27793522187500025	0.7163643742534759	0.9763692422156168	1.2315621123506648
0.2722534843750002	0.7098564128803838	0.9799094522994021	1.2292466592696238
0.26649215624999945	0.7040961972165984	0.9850492321635085	1.2256907235865022
0.26065013437499934	0.6993518433893064	0.9922358988498897	1.2202476504423216
0.2547262812499995	0.6958231626884385	0.9999024156155994	1.2161626190880772
0.24871944687499994	0.693361115772106	1.003919338758408	1.216906879956693
0.24262847812499932	0.6912930478707958	1.0013218459496376	1.2225105581754332
0.23645219062500059	0.6886733191120813	0.9924033436457318	1.230647367720245
0.23018939062499996	0.6845256127310341	0.9793240480431316	1.2372879510994776
0.22383886874999995	0.6783282478242845	0.9637308226569954	1.2374347474492264
0.2173993906249998	0.670478302977837	0.9446827142303166	1.2281475268255686
0.21086971874999982	0.662249983822539	0.920113259295075	1.2092389584203476
0.20424858125000028	0.6548229033945222	0.8906328344520525	1.1844630675925154
0.1975346999999993	0.6477179604803615	0.8594616004858314	1.1592441959569069
0.19072677203125016	0.640287874945211	0.8299765934740022	1.1330161429268188
0.18382349062500009	0.6328603840421534	0.802932163367619	1.1050110484036268
0.1768235124999999	0.6261778651497774	0.7760624184767355	1.078520385648322
0.1697254874999997	0.6210038294007312	0.7497114732958733	1.0543429169895993
0.16252803125000032	0.6169025814735349	0.7282451012033426	1.028749514726001
0.15522976562500024	0.6122105013932905	0.7135892031054074	1.0000877716851897
0.14782927187500008	0.6058679655692149	0.7021277475771522	0.9712213568198942
0.14032511875000012	0.5983994053292059	0.6900843771108165	0.9446369458930081
0.13271585312499953	0.5910826948812905	0.6765501973199595	0.9209219443694648
0.12500000000000008	0.5856111770596967	0.6619530503995955	0.9018250086597945
0.11805555499999976	0.5826973297615802	0.6476905247000195	0.8899810061867354
0.1111111112499997	0.581897814779435	0.6358075491567158	0.8824332752808405
0.1041666662500002	0.5823603991941488	0.6227103362376067	0.8722926019410275
0.09722222250000022	0.5837039350491845	0.6066838860551581	0.8593997515616153
0.09027777749999989	0.5862918850361312	0.5912013528392148	0.8460879061257047
0.0833333337499999	0.5890655975349098	0.5803053112272216	0.8362115481701228
0.07638888875000027	0.5905653851410718	0.5741721980957163	0.8347484830812206
0.06944444500000004	0.5905766363746225	0.5707353581279991	0.8426734881419932
0.06250000000000004	0.5898755658747404	0.5681985860582325	0.8554682943785329
0.05555555499999981	0.5892991022010443	0.566297817156499	0.8678947340118903
0.04861111125000011	0.5893334461675976	0.565945129608717	0.8769225056637574
0.041666666249999915	0.5900211855090595	0.5674910832516024	0.881235239995239
0.03472222250000002	0.5911720136950345	0.5701209563081969	0.8805353637704354
0.027777777499999906	0.5926236772048898	0.5731627355429725	0.8751859307947633
0.02083333374999994	0.5942339855301266	0.5769948937020718	0.8663114986863741
0.013888888749999953	0.5957594721002396	0.5820799469459607	0.8562396742187418
0.006944446656250006	0.5966747758088394	0.5875278029907612	0.8480979380919274
0.0	0.6113605138777385	0.5702709126386051	0.847415229220253
