0.5000000000000003	0.0017321365929917074	0.09994495781548061	0.21581551625509096
0.49742875625000194	0.0018227548769294262	0.09421912172276303	0.231453400644425
0.49482149687500077	0.014018580741745076	0.24050212866979254	0.6995746462353211
0.49217771875000144	0.03476247525987419	0.35212475514520325	1.1687660804059647
0.4894969062499981	0.062404309583369844	0.43722196761587384	1.6115543585597893
0.48677854687499983	0.09564144100291255	0.5066095424623646	1.9935493809368396
0.48402210937500056	0.13284109636142866	0.5682709690865924	2.2932758317553708
0.48122705937499843	0.17182630602682208	0.6228687243525639	2.5099909055971423
0.47839286562500044	0.21105574163721771	0.6699953920333722	2.6551372631644012
0.4755189656249995	0.2501050129839777	0.7102532639240794	2.7426205131939714
0.47260480937499916	0.2882510427112128	0.7426658427629473	2.785293988275401
0.46964983750000083	0.3245825349364436	0.7680699522744731	2.793445685200718
0.4666534749999997	0.35897350701285924	0.7920569072375451	2.7734385285810896
0.4636151437500017	0.3914575744319516	0.8215880993833256	2.7303923188122288
0.460534253124999	0.42175583726651794	0.8588543178518672	2.671104530247996
0.45741020937500093	0.44960507374908465	0.8978191190750338	2.6033491441560543
0.4542424000000002	0.47489948233047785	0.9277275449022481	2.534709144113934
0.45103022812499977	0.4978626919897373	0.942262516361767	2.4715341342510095
0.4477730562500009	0.5190263950105948	0.9450362808906427	2.4166397286376973
0.44447025937500095	0.5389651294403888	0.9435907945371312	2.3691042366834445
0.441121206249999	0.5583934331845976	0.9416030123173622	2.3269569227392477
0.43772524062499985	0.5782612697491697	0.9411491384263581	2.289127647384638
0.43428169999999944	0.5993269152280428	0.945059636615289	2.2551967220436597
0.43078993437500107	0.6216481945054251	0.9542230065097663	2.22426642070964
0.42724925312500034	0.644468752913102	0.966816371777249	2.19510753377417
0.42365897499999994	0.6663554684133658	0.9795652086852427	2.166204547505011
0.4200184156249997	0.6857177111385221	0.9894437859892055	2.1352467911379023
0.4163268562499999	0.701196390094756	0.9949053305870524	2.0996656703148684
0.4125835906249998	0.71234394279874	0.995810471974704	2.058552940005397
0.408787890625	0.7197526391096061	0.9926823833397179	2.01516498006557
0.404939028125	0.7245962546879253	0.986486397652341	1.9765625590652833
0.4010362531249997	0.7279736583963003	0.9790354369921989	1.9479697816582406
0.3970788062500005	0.7306976891250593	0.9736106085643854	1.9280962460224726
0.39306592812500063	0.7330839711028406	0.9731653847460082	1.9112108099638345
0.38899684687499964	0.7348511724911087	0.9772552196134293	1.8921513984427962
0.3848707656249999	0.7354814836488206	0.9836327535362982	1.8680067655272288
0.3806868874999992	0.7347806469827723	0.9921389781390293	1.837923519805134
0.37644440312499916	0.7332310228430111	1.0042538769683114	1.802958650923726
0.3721424968749993	0.7315193424712145	1.0188181776395027	1.7650368694337073
0.36778033749999917	0.7298385248212925	1.0308406997877995	1.7258711000028581
0.36335707500000036	0.7279684985761009	1.0358474339844128	1.687098752814918
0.3588718499999999	0.7254270144070266	1.0332298794476305	1.6500929744359247
0.3543238000000003	0.7217146016842101	1.0250221664045422	1.615807552300659
0.34971204687499996	0.7173719774969038	1.0138027995207193	1.5860684419040363
0.34503569687500074	0.7141356123166056	1.0020998923123607	1.563408852695201
0.3402938437500005	0.7135933586357325	0.9929288254697605	1.5485580834718577
0.33548557187500094	0.7157467819021712	0.9888197438469748	1.5396234661278347
0.33060994687499945	0.7188281784720625	0.9896792927274046	1.5333855503038216
0.32566603124999943	0.7204955169849352	0.992076721504257	1.5268739978728634
0.3206528687500002	0.7196097095144225	0.9911371094171848	1.5179774801756019
0.31556948125000117	0.7170594293273613	0.9848473439822085	1.5065805308245743
0.3104148874999999	0.7145592153098573	0.9763619219579214	1.4952038337438553
0.3051880968750001	0.7124883137819348	0.9699022072614671	1.4861318741291951
0.29988809062500027	0.7099228853347764	0.9661390648793792	1.4800444809644735
0.2945138468749994	0.7066616905457048	0.9638054750487981	1.477728604008967
0.28906433437500006	0.703696810965552	0.9638255144221655	1.4792764099173088
0.2835384781249999	0.7020544215091773	0.9692445689739729	1.483599896540647
0.27793522187500025	0.7020789044281565	0.9826451339395096	1.4898403702018175
0.2722534843750002	0.7037299218865047	1.004362452264802	1.49761850744014
0.26649215624999945	0.7069961772026794	1.0309604036848419	1.507105344408318
0.26065013437499934	0.7112672703226363	1.055802876458845	1.5181417128599026
0.2547262812499995	0.7152713527655651	1.0737177533163442	1.5265960827497185
0.24871944687499994	0.7192203779915246	1.0823170144422045	1.526748495308954
0.24262847812499932	0.7239670056748301	1.07790690809211	1.5192132386094912
0.23645219062500059	0.727964172070021	1.059039010121518	1.5077297168415482
0.23018939062499996	0.7297418349006382	1.0341490151607777	1.4918714577364822
0.22383886874999995	0.730213217658658	1.0141528878881756	1.46889274947867
0.2173993906249998	0.7301972917431521	1.0029144592554744	1.4371444049651099
0.21086971874999982	0.7300966880561098	0.9979582274263945	1.3964836258160551
0.20424858125000028	0.7312987139757052	0.9935966930513921	1.3501619754290264
0.1975346999999993	0.7350446114203241	0.9874391398985679	1.306735137440139
0.19072677203125016	0.7413666346143342	0.9766031715751837	1.2745955890981673
0.18382349062500009	0.7486144040939157	0.9542146617151813	1.2552618808856606
0.1768235124999999	0.7537092481930346	0.9213939933166779	1.2445079020105212
0.1697254874999997	0.754121931076015	0.8867047338379654	1.2368394647719678
0.16252803125000032	0.7498407591639097	0.8572504226043443	1.227200841176323
0.15522976562500024	0.7426601149474565	0.8341448952064429	1.2109241257278578
0.14782927187500008	0.7347640989653805	0.8134775426278187	1.186184129693384
0.14032511875000012	0.7283874087694179	0.7952113861881135	1.1533994252891555
0.13271585312499953	0.7259615093987678	0.7828913742342732	1.1096141061136429
0.12500000000000008	0.7308245122373755	0.7765406010568224	1.0518607797934167
0.11805555499999976	0.7376839930207358	0.7695248892998025	0.9954489937393539
0.1111111112499997	0.7405673747997503	0.7575021674071359	0.9558951182828345
0.1041666662500002	0.7382005162761593	0.7364574685799238	0.9310138305678729
0.09722222250000022	0.7322780762355268	0.7090456838989264	0.9151511239450175
0.09027777749999989	0.7252853199705649	0.6808091202397509	0.9051114727145527
0.0833333337499999	0.7184454919868853	0.6568025297505871	0.8988130836771562
0.07638888875000027	0.7128134665567784	0.6406548126123786	0.8921850476518213
0.06944444500000004	0.7094747791415463	0.6338252830595797	0.8798436518702678
0.06250000000000004	0.7097324214556874	0.6347414701164933	0.8592872806824321
0.05555555499999981	0.7145813156373949	0.6402598166554433	0.8329150975842526
0.04861111125000011	0.7233625579947482	0.6488492814587766	0.8053882136694581
0.041666666249999915	0.7333678724446127	0.660617509592411	0.7815925054039836
0.03472222250000002	0.7412109925165616	0.6746468217420128	0.7649816792386588
0.027777777499999906	0.7443801304758918	0.6884843130016836	0.7566655874078355
0.02083333374999994	0.7423455575445197	0.7006881600407798	0.7557706296698519
0.013888888749999953	0.7367643410948401	0.7113487883093655	0.7595868033210871
0.006944446656250006	0.7304664665859911	0.7190293797430066	0.7642466266518383
0.0	0.8093281511585775	0.5706695168363801	0.7675197285499289
