0.5000000000000003	0.0017124606461411743	0.08488097647965695	0.15179350471261557
0.49742875625000194	0.001356082421436078	0.08897609062410845	0.16292525052707868
0.49482149687500077	0.010939986455898254	0.22793486029688964	0.4856471854483965
0.49217771875000144	0.027557952318714187	0.34207085568377504	0.8017925425381061
0.4894969062499981	0.04934314021626847	0.4393730676216558	1.1024607260563943
0.48677854687499983	0.07456560093652928	0.524638924333431	1.3828461652074366
0.48402210937500056	0.10174409991302513	0.5992376239632884	1.6437181418955373
0.48122705937499843	0.12950747294400847	0.6614370566091827	1.8864810956883555
0.47839286562500044	0.15661469001207234	0.7091853092922299	2.1077340194388006
0.4755189656249995	0.18244565979979532	0.7434477537206228	2.299018020046663
0.47260480937499916	0.20747080167713333	0.7690027798436109	2.453240754233146
0.46964983750000083	0.23261016518700228	0.79147358087211	2.5692537152134034
0.4666534749999997	0.2583216332456427	0.8133088200220346	2.647903731014487
0.4636151437500017	0.28471790906440864	0.8335217413880261	2.6906902126558423
0.460534253124999	0.3122023157790589	0.8509027009361699	2.704697802664468
0.45741020937500093	0.34168824440060624	0.8669821765395992	2.7026204455665024
0.4542424000000002	0.3738707571045928	0.8861350551597911	2.6947755192135774
0.45103022812499977	0.40833826345932067	0.9126302037021818	2.6808460188903176
0.4477730562500009	0.44374334874721527	0.9475843019342256	2.6506164867078263
0.44447025937500095	0.4789397014122032	0.9882129021659622	2.5948852889683156
0.441121206249999	0.5136856718779891	1.0293224811741606	2.5162513159766755
0.43772524062499985	0.5480291509136602	1.0663841913835654	2.4277378440067485
0.43428169999999944	0.5816118310838417	1.0983458313847987	2.3402717180690376
0.43078993437500107	0.613542470865628	1.126195847629734	2.256485734262549
0.42724925312500034	0.6423148297388815	1.1473262003069864	2.1770912547508385
0.42365897499999994	0.6661958889826072	1.155000094648073	2.1072998524210607
0.4200184156249997	0.6842572993653525	1.1461862767394957	2.054407915229156
0.4163268562499999	0.6965289083430345	1.1254860277090637	2.0180793634503575
0.4125835906249998	0.703514505451144	1.1003750213625834	1.988442140594803
0.408787890625	0.7060874726987484	1.0762301313845126	1.9567447308863832
0.404939028125	0.705383243852431	1.055424884480487	1.9224228793560807
0.4010362531249997	0.7027622969616713	1.037966329014555	1.8905666204447913
0.3970788062500005	0.6994815822106989	1.0224398852777559	1.8661746085371365
0.39306592812500063	0.6963605132289225	1.0067626196359256	1.8503377653923136
0.38899684687499964	0.6937785637608296	0.9888287030870644	1.840641521745446
0.3848707656249999	0.6916991763050566	0.9675232749565794	1.8340052138871872
0.3806868874999992	0.6900828213045792	0.9434585885766404	1.8281093287662813
0.37644440312499916	0.6891698656683706	0.9186813940657675	1.821464241760297
0.3721424968749993	0.6894744694725756	0.8951894360253093	1.813368309755313
0.36778033749999917	0.6915197627853832	0.8734026110860383	1.803868896112769
0.36335707500000036	0.6954762406704783	0.8526790210686916	1.7942021367423802
0.3588718499999999	0.7009792583970766	0.833351739710567	1.7866539301723825
0.3543238000000003	0.7071866087549399	0.8172996214166194	1.7828686984918423
0.34971204687499996	0.71316376784977	0.8066752916596013	1.7819684308603576
0.34503569687500074	0.7182123337267875	0.802339795890111	1.7812174978414264
0.3402938437500005	0.7219204337048577	0.8035999176623007	1.777985989729428
0.33548557187500094	0.724218852990434	0.809027124608752	1.7696444757125653
0.33060994687499945	0.7254725577224701	0.8171694187919041	1.7526026601510438
0.32566603124999943	0.726362846548363	0.826867651745269	1.7233043270538146
0.3206528687500002	0.7272944623934507	0.8377527953664053	1.6813994434115653
0.31556948125000117	0.7278481832414961	0.8501331063287572	1.6311661212143875
0.3104148874999999	0.7273031693051926	0.8625855621429819	1.5798125020229659
0.3051880968750001	0.7258356281904306	0.8705941700599479	1.5332243989067114
0.29988809062500027	0.7250534471597936	0.8708663958240699	1.4933721383675282
0.2945138468749994	0.7265588525110557	0.864926693094549	1.4597184999643316
0.28906433437500006	0.7309000273957482	0.8583202976217253	1.4317774476352831
0.2835384781249999	0.7373696446615309	0.8552285321785511	1.408507003674355
0.27793522187500025	0.7442918746248575	0.855989584416094	1.3885896503047581
0.2722534843750002	0.7495821754122665	0.8594551896058152	1.3715356450294185
0.26649215624999945	0.7519120468155791	0.8640483481134541	1.3567621230740514
0.26065013437499934	0.7513100917962334	0.8670849053667148	1.3428933462887387
0.2547262812499995	0.7493724846931302	0.8657779532203039	1.329041570520117
0.24871944687499994	0.7489538988604622	0.8600509022151287	1.3168767223730045
0.24262847812499932	0.7524763350538519	0.8528861516871303	1.3101379752191835
0.23645219062500059	0.7601275421382145	0.8477171104834509	1.3092397903763224
0.23018939062499996	0.7699249188808911	0.8460645049617435	1.3094245803119058
0.22383886874999995	0.7793067630772605	0.8465514434782825	1.3065866191639754
0.2173993906249998	0.7864852864625073	0.8453569574509692	1.300877757252192
0.21086971874999982	0.790510223717643	0.8386655061711368	1.2910697926992254
0.20424858125000028	0.7907303113131915	0.8244576063249365	1.2718029656415542
0.1975346999999993	0.7873079758847508	0.8041686957520034	1.2415708396684582
0.19072677203125016	0.7815275878504804	0.7830890108395014	1.2065690310059545
0.18382349062500009	0.7751932113742664	0.7651252638987638	1.1734748818675655
0.1768235124999999	0.7694043263027651	0.7492162684288423	1.1451232411849483
0.1697254874999997	0.7648366108879713	0.7332322531439447	1.1204240194448694
0.16252803125000032	0.7618734039193318	0.7151329647355511	1.0931785752540908
0.15522976562500024	0.7600149513688246	0.6950611803075896	1.055238801870606
0.14782927187500008	0.7579204084736911	0.6775124462152043	1.0068738761492089
0.14032511875000012	0.7549504798426727	0.6660324689568633	0.9613995876741493
0.13271585312499953	0.749584627255842	0.6579400398988593	0.929063973502372
0.12500000000000008	0.7422646645837766	0.6477347901902059	0.905382937364956
0.11805555499999976	0.7329464041718057	0.6326951775416557	0.8828573771743519
0.1111111112499997	0.7226426083779326	0.6162056870166476	0.8615202025614145
0.1041666662500002	0.7115470878928464	0.5981508536571937	0.8441319902128631
0.09722222250000022	0.7003279786739117	0.5793024962255597	0.8349851465909337
0.09027777749999989	0.6902692526602977	0.5613264060009352	0.8318747264380821
0.0833333337499999	0.6820864458779543	0.548882668372927	0.8287297054332524
0.07638888875000027	0.6757492200544437	0.5445801729691987	0.8243493929879024
0.06944444500000004	0.6699584426818661	0.5456701451399962	0.8206365113872666
0.06250000000000004	0.662568948770843	0.5471498383869696	0.8189890424528944
0.05555555499999981	0.6520115197545303	0.5457195018159814	0.8203724158631057
0.04861111125000011	0.638092251866659	0.5413911825969276	0.8246118399383906
0.041666666249999915	0.6215587996779225	0.5361242953029557	0.8288580439016717
0.03472222250000002	0.603358504857131	0.5315316352339537	0.8252793920680994
0.027777777499999906	0.5851479599959344	0.5290229562686102	0.8065877786892898
0.02083333374999994	0.5697777613855272	0.5305043394018539	0.7751476090732881
0.013888888749999953	0.5592012456288115	0.5349408344520357	0.7440897311815526
0.006944446656250006	0.5527654657439732	0.538620316935178	0.7252943034309054
0.0	0.5179446909383182	0.5647529529097429	0.7083611344618297
