0.5000000000000003	0.0020455148793537565	0.12764395296166925	0.1848551434960946
0.49742875625000194	0.0020652272945819515	0.11815781122131624	0.17755463583932388
0.49482149687500077	0.014997590780514278	0.30243015152551156	0.5328075735478233
0.49217771875000144	0.037048837092760876	0.45232659041875944	0.8952793410776164
0.4894969062499981	0.06575507934922649	0.5773788610801905	1.2575475178256146
0.48677854687499983	0.0991327396150837	0.6822549594164634	1.6023068270461305
0.48402210937500056	0.13593623485536252	0.7635336679713471	1.906877948530002
0.48122705937499843	0.175091818590314	0.8160333647350406	2.152322695390527
0.47839286562500044	0.21567273294495157	0.843400955132481	2.3296445140483293
0.4755189656249995	0.25762703180008995	0.856668909897618	2.4399499848646653
0.47260480937499916	0.30138021946265536	0.862980857861147	2.492992920636203
0.46964983750000083	0.3458557658550644	0.8642770944000875	2.5055207744441947
0.4666534749999997	0.38821484262309247	0.8639435736296114	2.496663244127341
0.4636151437500017	0.42647570111983873	0.8659176736056471	2.480924634881045
0.460534253124999	0.4604456477050589	0.870083115275241	2.4643407676029434
0.45741020937500093	0.4903046230085239	0.8730351240579289	2.445671410587846
0.4542424000000002	0.5158798748570897	0.8715298734328512	2.4215731738245383
0.45103022812499977	0.537249688733524	0.8651171764462163	2.3910203898466267
0.4477730562500009	0.5553448204765252	0.8564905646808381	2.354783977939761
0.44447025937500095	0.5720338594874856	0.8494830883323442	2.312349548075816
0.441121206249999	0.5891308822793518	0.8460401753206515	2.2626320832900233
0.43772524062499985	0.607504016765297	0.8446432342996575	2.207684335353403
0.43428169999999944	0.6270234073620454	0.8429656412987985	2.152813423146975
0.43078993437500107	0.6468130181582316	0.8423086168694888	2.1036391885245465
0.42724925312500034	0.6657119211230995	0.8468183127668366	2.063396060877435
0.42365897499999994	0.6824668101266415	0.8582073689874214	2.0305288776340515
0.4200184156249997	0.6959143324925341	0.8741570559528943	1.999400251725721
0.4163268562499999	0.7051295810350938	0.8914759144065547	1.9643085674735405
0.4125835906249998	0.7099990029148628	0.9078514472255539	1.922541898641433
0.408787890625	0.7118698978195545	0.9219410962479375	1.8748671808484807
0.404939028125	0.7129446322729907	0.9338347739989751	1.8247416866491635
0.4010362531249997	0.7149944939300652	0.9448427027643199	1.776222989626164
0.3970788062500005	0.7185978895787314	0.9554776640766331	1.7313724719196093
0.39306592812500063	0.7235412517057366	0.9642086821747415	1.6896555139990859
0.38899684687499964	0.7292947543405379	0.9694195603745605	1.6498969117550404
0.3848707656249999	0.7357703130699538	0.971934662407611	1.6112120825890495
0.3806868874999992	0.7432423401503636	0.974001691930295	1.5731878228508656
0.37644440312499916	0.7516402829366692	0.9760394919453559	1.5356084857625005
0.3721424968749993	0.7606594713695674	0.9762431652421508	1.498594986138812
0.36778033749999917	0.7699511025132156	0.9730967924549117	1.4634393146317104
0.36335707500000036	0.779075944790988	0.9669802551984843	1.4329124104374962
0.3588718499999999	0.787654039052327	0.9593439393517381	1.4098186551164966
0.3543238000000003	0.795370494798292	0.9507113396173558	1.395389217086747
0.34971204687499996	0.8021206856040931	0.9408870118970148	1.389295504886623
0.34503569687500074	0.808523401206447	0.9308750824031506	1.390805854248021
0.3402938437500005	0.8156007249982772	0.9228104112777806	1.3987489431865703
0.33548557187500094	0.823611568869872	0.9182334595960807	1.4112413771838974
0.33060994687499945	0.8319426264764243	0.9175410537583274	1.427189743694345
0.32566603124999943	0.8398308404918522	0.9204452605179649	1.446516318191375
0.3206528687500002	0.8467724761031808	0.9261204516086601	1.4678686123564528
0.31556948125000117	0.85245342711235	0.9331598801657739	1.4871897685279754
0.3104148874999999	0.8561560158961449	0.939912931451196	1.4992242293080151
0.3051880968750001	0.8568288708892388	0.9448646068887249	1.5008501315615441
0.29988809062500027	0.8537084235087423	0.9465221568584061	1.4927006032691736
0.2945138468749994	0.8471681600697889	0.9434514889984171	1.4787681144947895
0.28906433437500006	0.8388229148220401	0.9353848777766341	1.4647499793370058
0.2835384781249999	0.8305663730944935	0.9241256793894029	1.4539107558663846
0.27793522187500025	0.8235201756451964	0.9121273689648342	1.4439496516131538
0.2722534843750002	0.8177236538505529	0.9000130721192766	1.4299987865653643
0.26649215624999945	0.8125308134051156	0.8867902276666851	1.4106485674075646
0.26065013437499934	0.8072747914329685	0.8717446698144458	1.3884387612738918
0.2547262812499995	0.8015956443482178	0.8545706047039558	1.3643817390274842
0.24871944687499994	0.7951666809081417	0.8350696413381019	1.336303900275775
0.24262847812499932	0.7879928336818897	0.8143398442204557	1.3042188577709979
0.23645219062500059	0.780774314398218	0.7949357059248034	1.2720782000250157
0.23018939062499996	0.773749131385549	0.7797818100038383	1.2423558054834498
0.22383886874999995	0.7660893742056873	0.770563119084535	1.2138049949795364
0.2173993906249998	0.7571516994462958	0.7670618932627693	1.1846330705481636
0.21086971874999982	0.7470638475315506	0.7681753863968782	1.1548376233895234
0.20424858125000028	0.7364596807640742	0.7719777752694257	1.1243803810147286
0.1975346999999993	0.7265757961218686	0.774050608324188	1.0914851656964073
0.19072677203125016	0.7181171082364355	0.770181592696006	1.0558452662731392
0.18382349062500009	0.7101930139116985	0.7631131676387823	1.019484484046865
0.1768235124999999	0.7018841797661378	0.7592986335107843	0.9839550025639083
0.1697254874999997	0.6933827625834954	0.7587239123478066	0.9496443092293197
0.16252803125000032	0.6856339351736508	0.757405339582761	0.9156122846655619
0.15522976562500024	0.6802726480434312	0.7536237970213223	0.8840221326962445
0.14782927187500008	0.6780558715515989	0.7474931272797282	0.8607000147149535
0.14032511875000012	0.6779330384313468	0.7395926910457019	0.8473259779102755
0.13271585312499953	0.6776786347679924	0.730007419379633	0.8394763647540104
0.12500000000000008	0.6758037849536898	0.7198217169881084	0.8341729556582677
0.11805555499999976	0.6709504285168882	0.7105617279664498	0.8324666494115701
0.1111111112499997	0.6646660338099596	0.7027084334157615	0.8353370947098013
0.1041666662500002	0.6570363899889847	0.6923202587994671	0.8403620230936523
0.09722222250000022	0.649009161617803	0.6787080620066599	0.8446239191963821
0.09027777749999989	0.6413851254777135	0.6637647207248514	0.8444280920342214
0.0833333337499999	0.6341024047690085	0.6510013163377765	0.8343970078623228
0.07638888875000027	0.6264861754369457	0.640454144966375	0.8105543188818914
0.06944444500000004	0.617705967753131	0.630017169587173	0.7752457082654931
0.06250000000000004	0.6069362331694117	0.6187361854267104	0.7353353846788021
0.05555555499999981	0.5939743413335811	0.6056838040899607	0.6967339875652743
0.04861111125000011	0.5801929247437929	0.5902086697876711	0.6617267788769782
0.041666666249999915	0.5675061709400384	0.5736869725225371	0.6299305218401199
0.03472222250000002	0.5564984224369997	0.5587285666619235	0.600293085656816
0.027777777499999906	0.54696987118175	0.5468739082731605	0.5723207447328859
0.02083333374999994	0.5391089556725625	0.537347998090913	0.5447614842776141
0.013888888749999953	0.5331024531553985	0.528573516293317	0.5168669221733913
0.006944446656250006	0.5284043997607011	0.5207771252984558	0.4923370784681896
0.0	0.5219176047327417	0.49605248524769036	0.4722463926833342
