0.5000000000000003	0.00149519661153273	0.08132148694111994	0.12798068580490501
0.49742875625000194	0.001457020537765522	0.08345653817779711	0.12946820946129117
0.49482149687500077	0.011689739130818149	0.22098269766804007	0.38406222043962573
0.49217771875000144	0.029082527757801246	0.33794336211927284	0.6396710815142009
0.4894969062499981	0.05150677014843448	0.43735526628480376	0.895612978881378
0.48677854687499983	0.07736737621343968	0.5204053260880153	1.1474655319656337
0.48402210937500056	0.10565633725615084	0.587755625760968	1.3881469709277001
0.48122705937499843	0.13578389773757465	0.6407495299991318	1.6101085282824539
0.47839286562500044	0.16745149227152123	0.6824244570168585	1.8075726251342785
0.4755189656249995	0.20038565230034797	0.7174893659989475	1.9777919964283186
0.47260480937499916	0.23416687171700842	0.7510942282078562	2.1212558672120605
0.46964983750000083	0.26844244455177	0.7873273449452202	2.241173902125203
0.4666534749999997	0.303049107863352	0.8283752415755272	2.3422822987522363
0.4636151437500017	0.3379633991681176	0.8742407808606711	2.4286906203490575
0.460534253124999	0.3730648945746804	0.9224453412501322	2.501214753568131
0.45741020937500093	0.40802137938066296	0.9681097515081204	2.5560725034083664
0.4542424000000002	0.44239538404923573	1.005941742270434	2.5866803318374907
0.45103022812499977	0.4762762390459431	1.0337270370385117	2.587942723009326
0.4477730562500009	0.510202100229792	1.0536620098472378	2.5600750326168162
0.44447025937500095	0.544428946333649	1.0692937234152566	2.509950114339375
0.441121206249999	0.5783402099727935	1.0815306002373515	2.4495893997917353
0.43772524062499985	0.6109684852023929	1.088521232703922	2.392041659787823
0.43428169999999944	0.6417755593270216	1.0892808654114867	2.3447079967941113
0.43078993437500107	0.6705864937151508	1.085650574724842	2.3047405367897706
0.42724925312500034	0.6970375388460532	1.0795274022086874	2.2637698553242274
0.42365897499999994	0.7203694944180972	1.0705872932028233	2.2171195722259243
0.4200184156249997	0.7399476783956759	1.0584112549603637	2.166648912085965
0.4163268562499999	0.7554022215638208	1.049170998065258	2.1161822984163634
0.4125835906249998	0.7668453179838457	1.053227099419152	2.0667837168977052
0.408787890625	0.7752881396607735	1.0718788323433002	2.0157135805079087
0.404939028125	0.7820994753569563	1.0981924779189427	1.9580584392101588
0.4010362531249997	0.7882035818486506	1.1246719844644346	1.8914632145314108
0.3970788062500005	0.7939745576066334	1.1469287577924698	1.8191176467236123
0.39306592812500063	0.799439833040301	1.1643569458312701	1.7453325505741264
0.38899684687499964	0.804496130436738	1.1773495941369039	1.6712520401084454
0.3848707656249999	0.8088504986263266	1.186430566098946	1.5994647275237073
0.3806868874999992	0.8118224597911293	1.1925533826040238	1.5378749538046947
0.37644440312499916	0.8130454410090454	1.1944189201364477	1.4925451286995046
0.3721424968749993	0.8131300423486987	1.1898416875844455	1.4623318330474981
0.36778033749999917	0.8131005749846661	1.1797769445720645	1.442671887879764
0.36335707500000036	0.8132732933675414	1.1681888820555564	1.4311146892863307
0.3588718499999999	0.8126468722971673	1.158396663894549	1.4275135872503253
0.3543238000000003	0.8096709570336229	1.1503092747096026	1.4303801788833825
0.34971204687499996	0.8037840457867835	1.1409565076043082	1.434716985538976
0.34503569687500074	0.7961172055985452	1.127020945278084	1.4345603538689384
0.3402938437500005	0.7890788024292028	1.1071227114632956	1.4280645074632852
0.33548557187500094	0.7853308679299215	1.0828710527792407	1.4190702607548282
0.33060994687499945	0.786750265176448	1.0576511414021303	1.4132268253317597
0.32566603124999943	0.7935723539444214	1.034375080438477	1.4134160492967098
0.3206528687500002	0.8044826497766269	1.015558261477121	1.4186405848916657
0.31556948125000117	0.8177918772264872	1.003883875412812	1.4257033702401514
0.3104148874999999	0.8321296951249154	1.0001124323179749	1.4311419001384083
0.3051880968750001	0.8460427797098069	1.0014322904189534	1.433169088430203
0.29988809062500027	0.8578698278515161	1.0037487127871094	1.4323684880190826
0.2945138468749994	0.8662840187723057	1.0043275360037656	1.430387155315487
0.28906433437500006	0.8709750383007133	1.002856966237186	1.4273375627310383
0.2835384781249999	0.8724243000548234	1.0012600205332898	1.4211450195967472
0.27793522187500025	0.8714588812479596	1.0016752666360251	1.4103889536956042
0.2722534843750002	0.8686553771416408	1.0029713888971954	1.3976739010521737
0.26649215624999945	0.8642017376271932	0.9992212940195583	1.3874167884103485
0.26065013437499934	0.8577026857091352	0.9837941108782898	1.381503478488619
0.2547262812499995	0.8483880550642784	0.9573201230478462	1.377687383016587
0.24871944687499994	0.83597554284438	0.9294696151581692	1.369875092189241
0.24262847812499932	0.8212126590916778	0.9094899137121994	1.3521879611355156
0.23645219062500059	0.8053350018866882	0.8989277477268185	1.3243677726868808
0.23018939062499996	0.7894074667255925	0.8940848243315335	1.288179800975887
0.22383886874999995	0.7742359393985128	0.8901137706350566	1.2439382015231846
0.2173993906249998	0.7602670840501415	0.8837381799281251	1.1954188113328477
0.21086971874999982	0.7477457691633683	0.874086151611267	1.1504107074006715
0.20424858125000028	0.7366790657059729	0.8613124554006745	1.1154052134684111
0.1975346999999993	0.7265757518717048	0.8466487008951749	1.0922187786210846
0.19072677203125016	0.716424088270491	0.8337549071840976	1.0758941709302037
0.18382349062500009	0.7052061387785543	0.8270915034328525	1.0543463029746865
0.1768235124999999	0.6926965038583422	0.8270834763892316	1.0171820908132434
0.1697254874999997	0.6794403452117708	0.8284449573377106	0.9668367782769826
0.16252803125000032	0.6668450418124702	0.82523579661512	0.9164910053443802
0.15522976562500024	0.6568305583612263	0.8165145259559947	0.8775168099184854
0.14782927187500008	0.6506072794125858	0.8045755451225802	0.847783191943012
0.14032511875000012	0.6483419926184576	0.7917844670567094	0.8206176992585449
0.13271585312499953	0.649630227519074	0.7788093751073415	0.7965540821019229
0.12500000000000008	0.6542304041341422	0.7645172757808077	0.7783060322680967
0.11805555499999976	0.6607172764375113	0.7482064365301204	0.7649577317262249
0.1111111112499997	0.6672037780289083	0.731965262973271	0.7545533821004436
0.1041666662500002	0.6726797530117504	0.7161905157764655	0.746046403883893
0.09722222250000022	0.6761736270123249	0.7020337168555448	0.7412550790974601
0.09027777749999989	0.6776794012610868	0.6900103843781256	0.7420189137295014
0.0833333337499999	0.6773280511928265	0.6802557237219219	0.7487318255819833
0.07638888875000027	0.6752019789866621	0.6721797562083267	0.7610228483762502
0.06944444500000004	0.671657023793558	0.6642217649640947	0.7759596575670483
0.06250000000000004	0.6675322969354613	0.6548676547181197	0.7880685227340418
0.05555555499999981	0.6635067215675275	0.6445152013818615	0.794545167799058
0.04861111125000011	0.6594861158427263	0.6349372218707336	0.7971070732157535
0.041666666249999915	0.6547539987853431	0.6274843836656848	0.7989451469001455
0.03472222250000002	0.6484416688393226	0.6226567105833173	0.8015341764087134
0.027777777499999906	0.6399723357776652	0.620509094110503	0.8037513875985164
0.02083333374999994	0.629730948942902	0.6204584206391284	0.8036931619108542
0.013888888749999953	0.6193922199190247	0.6213267681567775	0.800598132781249
0.006944446656250006	0.6112780466992059	0.6216071154314925	0.7956918551941701
0.0	0.6418727029276594	0.5600704247523913	0.7858438318711647
