0.5000000000000003	0.0019006056713399221	0.10808147103014652	0.20357164788215856
0.49742875625000194	0.002191260911781047	0.09513627131136893	0.21087232318902763
0.49482149687500077	0.015841082315226292	0.24263830161120092	0.6344392625145122
0.49217771875000144	0.03854012688785403	0.35144528733519614	1.063689948459174
0.4894969062499981	0.06766821119833283	0.4306820203203642	1.4851229726407993
0.48677854687499983	0.10048652797987084	0.49554010239374974	1.878508435579673
0.48402210937500056	0.13460898846528058	0.5568902792745867	2.227015380642847
0.48122705937499843	0.16904403742602242	0.6152039534869554	2.5227306433103407
0.47839286562500044	0.20450054872140289	0.6683214795697635	2.7649249645522245
0.4755189656249995	0.2414420852425579	0.7166917017164138	2.9550197218440464
0.47260480937499916	0.27879478999468027	0.7615004809947803	3.0925813967034284
0.46964983750000083	0.3152158837497698	0.8035929223476044	3.1757390347424694
0.4666534749999997	0.35053088321969217	0.8438008368301136	3.20605666147236
0.4636151437500017	0.38591406158713437	0.8830676528164679	3.1919704281117123
0.460534253124999	0.42238094258722714	0.9232194559657495	3.146905953540831
0.45741020937500093	0.45930965468350854	0.9667102928861326	3.084356858317465
0.4542424000000002	0.49481746284087547	1.012789657277935	3.014053549830824
0.45103022812499977	0.5275333757606585	1.0541830687742795	2.9416948205958344
0.4477730562500009	0.5577208203460354	1.0832252074951183	2.870780586996945
0.44447025937500095	0.5865737513528718	1.1027323443038117	2.802086558776163
0.441121206249999	0.6145571191340208	1.1196921264629898	2.733306103997256
0.43772524062499985	0.6411303387937484	1.1342933254291154	2.6626737759637065
0.43428169999999944	0.6660635487231548	1.1450241277146231	2.5926763155003365
0.43078993437500107	0.69034874785199	1.1521732390766446	2.529158563686842
0.42724925312500034	0.7153187895610001	1.1562353895721975	2.4763716893568817
0.42365897499999994	0.7407415368361179	1.1591969748113224	2.433041302462537
0.4200184156249997	0.7650526527095701	1.165283347001196	2.392264260357485
0.4163268562499999	0.7870959657479122	1.1772600254361532	2.345987378037337
0.4125835906249998	0.8066080999103797	1.1929527696629887	2.2909952820162967
0.408787890625	0.8241065798128466	1.2073321664239118	2.2309592232248536
0.404939028125	0.8407263668000963	1.2181176667399407	2.1731624554765117
0.4010362531249997	0.8579593968200857	1.2285026606131948	2.12312058860791
0.3970788062500005	0.877414731564209	1.2437118910205895	2.082387359680425
0.39306592812500063	0.8999176087756181	1.2654605403037855	2.0499668955634696
0.38899684687499964	0.9246971932363637	1.290935037400274	2.022337027508296
0.3848707656249999	0.9494910702779142	1.3149453423697044	1.9932962120864524
0.3806868874999992	0.9716935349091445	1.3310534378605061	1.9589596156442917
0.37644440312499916	0.9893892150619051	1.333836394897109	1.922210359584093
0.3721424968749993	1.0021053172099177	1.3214727665867674	1.8875969711242697
0.36778033749999917	1.011075150688562	1.2949534375930918	1.8535919165097012
0.36335707500000036	1.018407720019487	1.257500532641957	1.8171048778765067
0.3588718499999999	1.0257288118127887	1.2154088868434783	1.7794184251510163
0.3543238000000003	1.033983655556005	1.175426264676913	1.742872164118498
0.34971204687499996	1.0434086134472167	1.141380179846108	1.7089910449480132
0.34503569687500074	1.0532193357613255	1.1132586431703748	1.6806726045029978
0.3402938437500005	1.0624282239173968	1.0888801989014605	1.6610040088045206
0.33548557187500094	1.0704392963041802	1.0656541969281426	1.6494217093947248
0.33060994687499945	1.0759128237483082	1.041589522863514	1.642659030765612
0.32566603124999943	1.0762841430111239	1.0183494699982498	1.6389118555824318
0.3206528687500002	1.0696001700942015	1.000654065361327	1.6379971867073215
0.31556948125000117	1.0558530513122766	0.9916723757924871	1.6373511685973927
0.3104148874999999	1.0369230644052327	0.991040653931204	1.6321237772769008
0.3051880968750001	1.0152380250399111	0.9952000208121301	1.620601555924891
0.29988809062500027	0.9923312045042756	0.9986214484524695	1.606987743646935
0.2945138468749994	0.9692547387112795	0.9973092364981803	1.595977864842384
0.28906433437500006	0.9473198711138495	0.9921170817053752	1.586611037011696
0.2835384781249999	0.9278641738237418	0.9886341286769562	1.5761901312071886
0.27793522187500025	0.9122412257982894	0.9918259923336171	1.562135416579197
0.2722534843750002	0.9007643967492668	1.000515339947527	1.5422330166539777
0.26649215624999945	0.8916184243620486	1.0091242616575968	1.5182887527129585
0.26065013437499934	0.8823574307836798	1.0133997764738338	1.4945683118701734
0.2547262812499995	0.871305472027483	1.0109163237287484	1.472276768124828
0.24871944687499994	0.8571905884406334	1.0023824539578068	1.4487962327722417
0.24262847812499932	0.8390586732524764	0.9906274053363443	1.4217680040843115
0.23645219062500059	0.8180078232789325	0.9765256869230324	1.3914730748856856
0.23018939062499996	0.7962505680297475	0.9599851468658599	1.357350100126433
0.22383886874999995	0.7756732711763127	0.9445931540815495	1.317667527211859
0.2173993906249998	0.758750536623377	0.93324050051682	1.274091035360311
0.21086971874999982	0.747317997501715	0.9262788877369099	1.2300767908414247
0.20424858125000028	0.7405213382036141	0.9237167370654894	1.1874262901927768
0.1975346999999993	0.7361326276466651	0.9199346207002708	1.1468304995752645
0.19072677203125016	0.7335334218163607	0.9094336777452654	1.11015377473152
0.18382349062500009	0.7323808922413135	0.8945837668526434	1.0826766727269161
0.1768235124999999	0.731883216850295	0.8798028651595423	1.0650135623409402
0.1697254874999997	0.730743284263207	0.8686900083404195	1.0529856002957838
0.16252803125000032	0.7273185654513815	0.8632375696760676	1.0424489971512707
0.15522976562500024	0.7213371051621186	0.8581554906883537	1.0270987064335417
0.14782927187500008	0.7129125372120617	0.8468976079794436	1.0030580231974404
0.14032511875000012	0.7017256739651349	0.8309180657346921	0.9727807516802814
0.13271585312499953	0.6873686790635067	0.8133111754773634	0.943662697467281
0.12500000000000008	0.6706848827621459	0.7941798347447094	0.9215118308788044
0.11805555499999976	0.6538043470816026	0.7721256806111555	0.9048918135470239
0.1111111112499997	0.6393065922485828	0.74741615483446	0.8948943867221867
0.1041666662500002	0.6271474385263632	0.7209080582332555	0.8920875583118617
0.09722222250000022	0.6174350567084628	0.7003769778986503	0.8917480103534818
0.09027777749999989	0.6086341518976705	0.6888940737788926	0.887600239993985
0.0833333337499999	0.5990522419717256	0.6808642483281426	0.8779183022159979
0.07638888875000027	0.5884401427301865	0.6691819705331656	0.8635000033173054
0.06944444500000004	0.5779931704819357	0.6519397685117526	0.8449799385484119
0.06250000000000004	0.5686866735761202	0.6299450643364833	0.8259011580955381
0.05555555499999981	0.5606694638588967	0.6050567533175722	0.8131121323358659
0.04861111125000011	0.5537937358635754	0.5803891743728513	0.8104939853675875
0.041666666249999915	0.5484404247535841	0.5598853839596882	0.8148932520682302
0.03472222250000002	0.5451478720537916	0.5464839690277069	0.8218290331288315
0.027777777499999906	0.5435060855494439	0.5400713682083177	0.830888450164027
0.02083333374999994	0.5422636176823817	0.5381898402476618	0.8429408019327931
0.013888888749999953	0.5405686098176156	0.5379266962754463	0.8563483023410828
0.006944446656250006	0.5385037640799641	0.5372731634982642	0.8676819173805714
0.0	0.5349224514754567	0.5171158096703939	0.8861472123705078
