0.5000000000000003	0.002080232699250469	0.09942238690966747	0.16390343023602483
0.49742875625000194	0.002040213245329168	0.10737697165611856	0.17541398062040103
0.49482149687500077	0.014128204777428507	0.2778565882109946	0.524706258388465
0.49217771875000144	0.03399009061517795	0.41537211698481147	0.8767268356998492
0.4894969062499981	0.0592167712227549	0.5266512854393508	1.225828360420051
0.48677854687499983	0.08766662591568108	0.6160320328574469	1.56086066064855
0.48402210937500056	0.11831033568379361	0.6849550366621262	1.8691572769620104
0.48122705937499843	0.15174183139152075	0.7349240294439946	2.1420987021106193
0.47839286562500044	0.1894677817104471	0.7696854924522305	2.3757420873488124
0.4755189656249995	0.2318786050818745	0.7943105411754422	2.562290742057472
0.47260480937499916	0.27787528277629153	0.8160407434056846	2.6907373376597508
0.46964983750000083	0.3263259429043748	0.8411019769380723	2.762382847456752
0.4666534749999997	0.37583425011226396	0.8660313400575702	2.7941236514747905
0.4636151437500017	0.423783385945997	0.8812958040452317	2.8038855310909123
0.460534253124999	0.4669619454532066	0.8836234096977736	2.8001481276183284
0.45741020937500093	0.5027672620481766	0.8801143945314472	2.7846847177843426
0.4542424000000002	0.5299727385659413	0.8834819596604614	2.75878752300309
0.45103022812499977	0.5487728079726859	0.9020015779881022	2.724172067023423
0.4477730562500009	0.5613520769074235	0.931996920048735	2.6816341082184323
0.44447025937500095	0.5718639407117009	0.962311817084294	2.631340362657511
0.441121206249999	0.5847243173545077	0.9857227586888547	2.5735341588251153
0.43772524062499985	0.6033152963983207	1.0060994354160457	2.5112530466979743
0.43428169999999944	0.6294554544982012	1.030401341396474	2.45155017401968
0.43078993437500107	0.6624044436148033	1.054627564457123	2.3939493231243296
0.42724925312500034	0.6981096586649598	1.074217914034484	2.3270511416048643
0.42365897499999994	0.7320764996926558	1.0930283616141578	2.2487008760224776
0.4200184156249997	0.7622211636956729	1.1097632826079502	2.1706131268017574
0.4163268562499999	0.7870802881793829	1.1197736917339263	2.102363891602347
0.4125835906249998	0.8045811226723254	1.1225405846311631	2.0423460104745685
0.408787890625	0.8138240497861976	1.1198066443414838	1.986564863011525
0.404939028125	0.8166825174836749	1.1128973225525087	1.9379019406783482
0.4010362531249997	0.8165057933329138	1.1025745462600274	1.9021227547699364
0.3970788062500005	0.8164764942913405	1.0900405212885296	1.8778143474282578
0.39306592812500063	0.8181103859885054	1.0751110029454907	1.854762879843072
0.38899684687499964	0.8212016338933342	1.0555445452557664	1.8256744430929626
0.3848707656249999	0.8246149759918425	1.030507288120619	1.7906492521674084
0.3806868874999992	0.8271137127480321	1.0026172074491415	1.7520394829198414
0.37644440312499916	0.8279822132707049	0.9757798045310163	1.7117621805251708
0.3721424968749993	0.8273389136478491	0.952360245395616	1.6719840194530715
0.36778033749999917	0.8262511559395589	0.9324960943840455	1.6357110547568507
0.36335707500000036	0.8262700125895593	0.9147449421639811	1.6052995357658792
0.3588718499999999	0.8286959339168846	0.897818057745454	1.5809357225729912
0.3543238000000003	0.8336480210132674	0.882847112221257	1.5612724012970884
0.34971204687499996	0.8398422989815859	0.8728472839045245	1.5448352116465287
0.34503569687500074	0.845879649453127	0.869206871078597	1.5304367567653825
0.3402938437500005	0.8512201388829789	0.8692022483682196	1.5169434955631413
0.33548557187500094	0.8554797404095609	0.8675750876294229	1.5033275565836188
0.33060994687499945	0.8579708384211827	0.8611425776402664	1.4894235694158113
0.32566603124999943	0.8577831953786468	0.8519254368209558	1.47743076911587
0.3206528687500002	0.853766118396136	0.8457774533618893	1.4735709549450524
0.31556948125000117	0.8450005237814144	0.8463803698379647	1.483842765506054
0.3104148874999999	0.8313346731919589	0.8522806762114541	1.5032995632791974
0.3051880968750001	0.813831228664878	0.8607467697631149	1.519605979642929
0.29988809062500027	0.7952075454686787	0.8689916051526011	1.5260214406550232
0.2945138468749994	0.7773973697097745	0.8745432210927755	1.5227097342032336
0.28906433437500006	0.7597663823103064	0.8766361359591097	1.5148263315927701
0.2835384781249999	0.7429055343069193	0.877181845476533	1.51146517145904
0.27793522187500025	0.7298125671390419	0.8798611906926516	1.5122658514383616
0.2722534843750002	0.7207033482915065	0.884549671205375	1.509448717639146
0.26649215624999945	0.713592244937405	0.8878957226430166	1.5002224420167092
0.26065013437499934	0.7078881676343411	0.8886996513133139	1.4857268951529115
0.2547262812499995	0.7042318694099607	0.8864861151729647	1.4679121864981357
0.24871944687499994	0.7034472037822683	0.8804161917777136	1.4481670052025166
0.24262847812499932	0.7057626346166843	0.8710126881744007	1.428069169593849
0.23645219062500059	0.7106432812420084	0.859262692295697	1.4094844949506606
0.23018939062499996	0.7172486596661867	0.8448659930462722	1.3923406459625547
0.22383886874999995	0.7249915221011392	0.8282156579231263	1.374468041157461
0.2173993906249998	0.7332591748759322	0.8110386382192815	1.355405082948872
0.21086971874999982	0.7412317559118139	0.7947882158487376	1.3376394859526843
0.20424858125000028	0.7483604217521321	0.7812921072969538	1.3222278369554137
0.1975346999999993	0.754695847058366	0.77363344455272	1.306975671222008
0.19072677203125016	0.7606675246181921	0.7737617909020593	1.2901387969569371
0.18382349062500009	0.7664935563714497	0.7808506931003464	1.272000640591604
0.1768235124999999	0.7718003006959682	0.7924108792727619	1.2516470124686507
0.1697254874999997	0.7758200767580324	0.8057104297231236	1.2260375480097454
0.16252803125000032	0.7780337429638182	0.8174947331742397	1.1945513008970103
0.15522976562500024	0.7783734034610397	0.8231872577118138	1.1613637849222584
0.14782927187500008	0.7766419092303846	0.8191673590830874	1.1321671597466327
0.14032511875000012	0.772651853489019	0.8088289433937204	1.1093537355722227
0.13271585312499953	0.7663299246882012	0.7993512383365852	1.0915248247684117
0.12500000000000008	0.757925201481319	0.7930825994019309	1.0760332590831911
0.11805555499999976	0.7494138806399463	0.7881872098332984	1.057951685473437
0.1111111112499997	0.7423331058650618	0.7861203383940266	1.0380251693949212
0.1041666662500002	0.7369908228835069	0.7872135348651734	1.0187037385216304
0.09722222250000022	0.7328503772643993	0.7915985097825482	1.0039211244761503
0.09027777749999989	0.7292687568109505	0.7962883869458519	0.9946440817675891
0.0833333337499999	0.7257790042726128	0.7967520954818613	0.9881432797458405
0.07638888875000027	0.7222758924967644	0.7909857293874201	0.9817862943364574
0.06944444500000004	0.7187249919520413	0.7807924100010685	0.9763160612623706
0.06250000000000004	0.715023460439063	0.7689449450876049	0.9740753817833769
0.05555555499999981	0.7110301116188839	0.7568516751725735	0.97619028458424
0.04861111125000011	0.706800508756185	0.7450436253362774	0.9837381075442181
0.041666666249999915	0.702658115445528	0.7348074714018814	0.9974295973158969
0.03472222250000002	0.6991915133374087	0.7277561539811379	1.0135733203667514
0.027777777499999906	0.6972330125568673	0.7233206730480557	1.0235513628863135
0.02083333374999994	0.6971916869809339	0.719732000022692	1.0212779717677145
0.013888888749999953	0.6985312883440831	0.7164366714672754	1.0129821567613928
0.006944446656250006	0.6997765107201127	0.7135229574704214	1.0107546171420256
0.0	0.6165378209408577	0.7364504235194788	1.0199260597464952
