0.5000000000000003	0.001759118524418281	0.08509331058501982	0.2013722564206224
0.49742875625000194	0.0016464677714144642	0.08002591187085321	0.19164508065065658
0.49482149687500077	0.012090663205284152	0.2062325019997731	0.5731091173751908
0.49217771875000144	0.029751287860299767	0.30740809400704466	0.9571579668977948
0.4894969062499981	0.05328149326254848	0.3909849455104967	1.3364439545832425
0.48677854687499983	0.08143771788592467	0.4654280860683189	1.6967118231692597
0.48402210937500056	0.11257960599893421	0.5359344199617878	2.023972401543381
0.48122705937499843	0.14511292602387427	0.6034038110943057	2.3107906800078304
0.47839286562500044	0.17858427420429315	0.6665091734970781	2.5549708520938763
0.4755189656249995	0.21325263046108	0.7218697880285451	2.754018804194008
0.47260480937499916	0.2489894855366382	0.7670203853635118	2.90378668370969
0.46964983750000083	0.2851842711203131	0.8040262305635557	3.002950413052091
0.4666534749999997	0.32120695315774256	0.8373782562012767	3.05749023367352
0.4636151437500017	0.3565526962177872	0.8695559230623261	3.0788480203457285
0.460534253124999	0.3904490752418776	0.9004219807413494	3.0774405172807096
0.45741020937500093	0.42170566859217135	0.9299797894523424	3.059111020892432
0.4542424000000002	0.44922247450722697	0.9596310488176929	3.026656180256069
0.45103022812499977	0.4730829685540498	0.9905669092811678	2.9825383732890827
0.4477730562500009	0.49513449750657745	1.0220282392675168	2.931280722757733
0.44447025937500095	0.5179837778466636	1.0509772560083528	2.879600333133423
0.441121206249999	0.5432870571274818	1.0733211148298156	2.83307433119716
0.43772524062499985	0.571164237073038	1.086434081913177	2.792029234807733
0.43428169999999944	0.6006404446685869	1.090600933097969	2.751834831729339
0.43078993437500107	0.6306746003021172	1.0880475469045907	2.708480634780557
0.42724925312500034	0.6607240553480692	1.081472038746814	2.6626111242898203
0.42365897499999994	0.6904232771718912	1.0738157236443748	2.6168543843851144
0.4200184156249997	0.7195617544527309	1.0685908304182035	2.5705678331138064
0.4163268562499999	0.748153662676393	1.0691302834934124	2.519893656482459
0.4125835906249998	0.7762814110769986	1.0767315055065714	2.4623787970635327
0.408787890625	0.8039392502259938	1.0889312225331569	2.399925029026414
0.404939028125	0.8306896254254285	1.1001624886817307	2.338858577714104
0.4010362531249997	0.8555999665563301	1.1058030798362797	2.2868500178884887
0.3970788062500005	0.8774198561685385	1.1059666778233377	2.2460735236809706
0.39306592812500063	0.8951540200631979	1.105158673808508	2.2104343372648296
0.38899684687499964	0.9089008247953219	1.108043609948162	2.1722258135245656
0.3848707656249999	0.9196839667545976	1.1175262728496729	2.129562051248257
0.3806868874999992	0.9286871683879666	1.134465011809919	2.0860412255473992
0.37644440312499916	0.9368718534411681	1.155620565991124	2.044911360024724
0.3721424968749993	0.9444279669875911	1.1739400702657918	2.0066944808389824
0.36778033749999917	0.9507948376785572	1.1830516193213796	1.9730781728664901
0.36335707500000036	0.9551953625207362	1.1813166487630502	1.9467698665901596
0.3588718499999999	0.9573686316349481	1.170181442208561	1.9257746718393403
0.3543238000000003	0.9578332511466052	1.1520942531675047	1.9032081314481455
0.34971204687499996	0.9573162374388623	1.131853501135334	1.8700278897905607
0.34503569687500074	0.956690055545641	1.1143063476776305	1.8195772477775523
0.3402938437500005	0.9561297684285474	1.0997183986181531	1.7587831786517416
0.33548557187500094	0.9543939475646319	1.084648520042045	1.7040430291124948
0.33060994687499945	0.9502713614925651	1.0669650405468492	1.656620516991362
0.32566603124999943	0.9440950005251871	1.0478758152908643	1.6091205289096286
0.3206528687500002	0.9373027796623159	1.030770274870052	1.5611491542552125
0.31556948125000117	0.9317724866528602	1.018598654574129	1.514205300856026
0.3104148874999999	0.929138723253623	1.0110731180761223	1.469463970648862
0.3051880968750001	0.9298145333059334	1.0050846937832016	1.4317532541614375
0.29988809062500027	0.9321084085579814	0.9994801480407596	1.4066178259024968
0.2945138468749994	0.9327012860047121	0.9963399211945347	1.395940999488456
0.28906433437500006	0.9290550655977439	0.9964040655284553	1.398162380704296
0.2835384781249999	0.9203699127917332	0.9957677005819033	1.408621377673806
0.27793522187500025	0.9067410342978632	0.9907523067900196	1.4182490996921475
0.2722534843750002	0.8894915248767535	0.98161804304359	1.4179600888868642
0.26649215624999945	0.8720436635826413	0.9700916353638872	1.4047527901100527
0.26065013437499934	0.8570870571381023	0.9565052913005742	1.379875213446216
0.2547262812499995	0.8453665954172563	0.9372088876707422	1.3489906158580183
0.24871944687499994	0.8364723632191464	0.9107973737172075	1.3210358419735138
0.24262847812499932	0.8290209511137008	0.8817336416223279	1.3023457295705165
0.23645219062500059	0.8210941200450848	0.8537661275324714	1.2930199851704212
0.23018939062499996	0.8114384892591898	0.8287310629641703	1.2874659885669304
0.22383886874999995	0.8005834511506353	0.8096542483387271	1.2787508705040993
0.2173993906249998	0.7900381826952657	0.7990101950975023	1.2636472685033635
0.21086971874999982	0.7808117596398414	0.7955332688918884	1.2437428039901335
0.20424858125000028	0.7730477300305612	0.7948219994347118	1.222885734191963
0.1975346999999993	0.7658972522429786	0.7929764610629505	1.2033393446793457
0.19072677203125016	0.7585763629775354	0.789711369826961	1.1852101552111074
0.18382349062500009	0.7507109469007585	0.7871894242040572	1.168362966488251
0.1768235124999999	0.7419665273251167	0.7867953534672788	1.1514971324905454
0.1697254874999997	0.7320048751496879	0.7874694290321843	1.1300276313480273
0.16252803125000032	0.7196254285968376	0.7860833549251894	1.0988803540625862
0.15522976562500024	0.7035233313850007	0.7796976346417388	1.0565096444004412
0.14782927187500008	0.68324733563298	0.7671779318837642	1.005399024287549
0.14032511875000012	0.6590637512290735	0.7484989537914134	0.9538694041797772
0.13271585312499953	0.6319691798592646	0.7245329166636041	0.9148093617274817
0.12500000000000008	0.6039827626694299	0.702205322435428	0.8922544174206279
0.11805555499999976	0.5786138676925031	0.6897295641800273	0.8758363878149558
0.1111111112499997	0.5562995186367238	0.6834012328491315	0.8561953632229617
0.1041666662500002	0.5359530952701637	0.6735171830327863	0.8287141912063601
0.09722222250000022	0.5193923061731804	0.6570081524403959	0.7944958049555977
0.09027777749999989	0.5079292130837697	0.6367749863225125	0.756729207262123
0.0833333337499999	0.5019754658128311	0.6174260538595785	0.7199378899526362
0.07638888875000027	0.5003457235673417	0.6014868047556969	0.6896350065565665
0.06944444500000004	0.5011745178111845	0.5892654642412105	0.6696449242539821
0.06250000000000004	0.5032638694254599	0.579811789942157	0.6576833602183337
0.05555555499999981	0.5060387928794828	0.5714536710383756	0.6486396948715472
0.04861111125000011	0.50895775381794	0.5626450572588403	0.6395822757484967
0.041666666249999915	0.5116453254825039	0.5531242409372611	0.6302507597070404
0.03472222250000002	0.5139368554081781	0.543579166724177	0.6223046021639217
0.027777777499999906	0.5156756675422053	0.5342051909252591	0.6169473374801462
0.02083333374999994	0.5166652367396641	0.5248756401604783	0.6136766186556893
0.013888888749999953	0.5167808982297206	0.5163997764067466	0.6111398612366645
0.006944446656250006	0.5158632175597311	0.5104371718310794	0.6086190627127397
0.0	0.49237442392107145	0.5168496304767681	0.6046782104030867
