0.5000000000000003	0.0017856258861278145	0.11585351137735347	0.1972434382615338
0.49742875625000194	0.001668237403157375	0.11819379281861815	0.19462121098435275
0.49482149687500077	0.014059947175338925	0.3028969627118197	0.5915375317568383
0.49217771875000144	0.036700828420058174	0.45364076271128745	0.9895588785300493
0.4894969062499981	0.06560582962662011	0.5748299797053084	1.3702017321567637
0.48677854687499983	0.0971290078601568	0.6653971612428601	1.7185343766665826
0.48402210937500056	0.12956221353672778	0.7285001538891853	2.02191373942161
0.48122705937499843	0.1631406209288418	0.773185304701667	2.2695033332925605
0.47839286562500044	0.19883383566033547	0.8083717491235236	2.4585212467562187
0.4755189656249995	0.2371287018405984	0.8394166375906019	2.593008729433688
0.47260480937499916	0.27751302063340094	0.8682953823175383	2.676907614810785
0.46964983750000083	0.3184910852388182	0.8973530033026343	2.715060648600787
0.4666534749999997	0.35829427045297635	0.9303378915971188	2.7187818731293567
0.4636151437500017	0.3959340446027088	0.9690912832069756	2.705236318791041
0.460534253124999	0.4314977146384351	1.0115295186338762	2.6882950391813054
0.45741020937500093	0.4656208533187021	1.0516537713222676	2.6683699152202043
0.4542424000000002	0.4988706314137254	1.0843164595767198	2.636170524292923
0.45103022812499977	0.5316107492175068	1.1107106100115136	2.588650560335439
0.4477730562500009	0.5636010307019823	1.133508382843848	2.533409758100484
0.44447025937500095	0.5939191108069587	1.1511745739206451	2.4784188105045963
0.441121206249999	0.6218027670288587	1.160443136146332	2.4256654453397934
0.43772524062499985	0.6473283411896449	1.1602195298032638	2.3741748747241123
0.43428169999999944	0.671006507455604	1.1530898788666617	2.3234735754276707
0.43078993437500107	0.6933282198614455	1.1443548635192533	2.2741304040561285
0.42724925312500034	0.7148535879590607	1.138619871470461	2.2267592937779663
0.42365897499999994	0.7361362870817384	1.136615366649344	2.1795998605668085
0.4200184156249997	0.757357637327448	1.1357396589194244	2.127504987175054
0.4163268562499999	0.7779572782085554	1.1329251758006293	2.0668379621364203
0.4125835906249998	0.7971860036670343	1.1261881070795865	2.0009280327767907
0.408787890625	0.8147522520820489	1.1149289428431515	1.9371766633902103
0.404939028125	0.8303858496758156	1.1001982876999798	1.8807764474461741
0.4010362531249997	0.8435209562152352	1.0843335184101814	1.8342241590603228
0.3970788062500005	0.8536390825658805	1.069771204870105	1.7997124218574048
0.39306592812500063	0.8603207245465392	1.0579008801805672	1.7768977423820025
0.38899684687499964	0.8631261334632763	1.0491397274624898	1.7611187461048523
0.3848707656249999	0.8620521762164948	1.0438551877172968	1.7471435142468659
0.3806868874999992	0.8580325957565645	1.0425107182282818	1.7323080617568865
0.37644440312499916	0.8525416407857208	1.0445786576485403	1.7164526002099545
0.3721424968749993	0.8470458210284544	1.0480728251533618	1.7013501384228902
0.36778033749999917	0.8422668760662808	1.0503840181274424	1.6891260343475785
0.36335707500000036	0.8379040758924826	1.0495847904529905	1.680277615987083
0.3588718499999999	0.8332763464486522	1.0448772052798225	1.6728318351582683
0.3543238000000003	0.8284499098586386	1.0361933475450162	1.6631070565060024
0.34971204687499996	0.8242328751671844	1.0241612063643484	1.6481986495654601
0.34503569687500074	0.8211934370651162	1.0108132454827146	1.629538393585347
0.3402938437500005	0.8192579706399574	0.9995595835380596	1.6123734099115263
0.33548557187500094	0.8180911381791854	0.9930431868877956	1.6003158525089662
0.33060994687499945	0.8172917318919569	0.9912357066782534	1.5929153678697028
0.32566603124999943	0.816483857615099	0.9924795423883117	1.587569767097996
0.3206528687500002	0.8154987589467266	0.995098438024485	1.5817612510124028
0.31556948125000117	0.8143955024085767	0.9974039458375666	1.5736853737166436
0.3104148874999999	0.8134227112456117	0.9975100651679857	1.5621786606119639
0.3051880968750001	0.8124118296464389	0.9938967702268219	1.547398422741788
0.29988809062500027	0.8106625616173583	0.985737981757491	1.5311315417100253
0.2945138468749994	0.807858646076229	0.9724444025490581	1.514789615957849
0.28906433437500006	0.8041761549942148	0.9541974727239443	1.4976304960682858
0.2835384781249999	0.800019171562615	0.9327291918011995	1.4770044783924379
0.27793522187500025	0.7963802817407397	0.9103900530551167	1.4510375855426245
0.2722534843750002	0.7944690476936505	0.8891610844520514	1.4217225066270935
0.26649215624999945	0.7945862285208843	0.8705937774373778	1.3919525549305678
0.26065013437499934	0.7956334405198467	0.8563792133443691	1.3599107830921253
0.2547262812499995	0.7952869549788624	0.8473769627221444	1.3215136566215553
0.24871944687499994	0.7912671902709263	0.8419019450573006	1.2781763746659374
0.24262847812499932	0.7835879854636112	0.8377477722143959	1.2356394092166112
0.23645219062500059	0.7744574033742747	0.8340176810790533	1.1982764105666814
0.23018939062499996	0.7654759837371294	0.8297670822749791	1.16946065705502
0.22383886874999995	0.7567842258337799	0.8234710824631125	1.1508227285161134
0.2173993906249998	0.7483034445485254	0.8162104256990319	1.1395610728311165
0.21086971874999982	0.7398259023308376	0.8106678925563575	1.1338812324525238
0.20424858125000028	0.7306449692797349	0.8060078754235859	1.1312540285116874
0.1975346999999993	0.7201691357962938	0.799224496393677	1.1246582490037498
0.19072677203125016	0.7083690310227252	0.7891813158298744	1.1114643558144712
0.18382349062500009	0.695503143042744	0.7771841593977616	1.0944409495888443
0.1768235124999999	0.6821996802765574	0.7653877798676826	1.0754801757473593
0.1697254874999997	0.6695215849312353	0.7550785724768168	1.0542211207884777
0.16252803125000032	0.6583050052701059	0.746370325478628	1.0298869398941772
0.15522976562500024	0.6488564232798806	0.7386031876077318	1.0013854535516478
0.14782927187500008	0.6409717904114103	0.7296070195972421	0.9676672620981505
0.14032511875000012	0.6351441946075584	0.7175949379652591	0.9299178295648138
0.13271585312499953	0.6314874878398838	0.7043839036400932	0.8917597291621151
0.12500000000000008	0.6306904128457654	0.6943886192234232	0.8575518331533679
0.11805555499999976	0.6317998425561797	0.6893403751794015	0.8318502541902275
0.1111111112499997	0.6349184840146325	0.6867880643573724	0.8137098852884243
0.1041666662500002	0.6387518452802428	0.6837642497006801	0.7996391619338089
0.09722222250000022	0.6419602532212618	0.6797424012676465	0.7875355761898748
0.09027777749999989	0.6431360370652425	0.6755232175644968	0.7780149041747001
0.0833333337499999	0.6420429846333919	0.6722020801991436	0.7727008666564245
0.07638888875000027	0.6396781480862475	0.6697358262258359	0.7714787971094627
0.06944444500000004	0.6374940660557259	0.6674125123577366	0.7723877376781784
0.06250000000000004	0.636564882543841	0.6653920983766801	0.7731361554812121
0.05555555499999981	0.6373891165535309	0.6649516065006424	0.771937473849759
0.04861111125000011	0.640020081448893	0.6661622642921416	0.769135047049827
0.041666666249999915	0.6441675509593464	0.6664992788089008	0.7665648975945925
0.03472222250000002	0.6492330735552547	0.6642579804925147	0.7650535442155709
0.027777777499999906	0.6545068458337253	0.6598622996622159	0.7638573096773287
0.02083333374999994	0.6593177516557462	0.6544053191289365	0.7612490030917314
0.013888888749999953	0.6629542088039849	0.6490905036720239	0.7554179970411963
0.006944446656250006	0.6644927742903038	0.6455106934840791	0.7469976761865307
0.0	0.686309102004342	0.6150452480729213	0.7345947087736595
