0.5000000000000003	0.0020335125840901624	0.07492146309705144	0.19604467885963386
0.49742875625000194	0.0019043905790802835	0.08833069556885229	0.19792677469842357
0.49482149687500077	0.014186135185564443	0.22343453798229515	0.5912560253962749
0.49217771875000144	0.03453203363451132	0.330365771704815	0.985687806241458
0.4894969062499981	0.06055404568302994	0.4159216104724267	1.374774993546189
0.48677854687499983	0.09063102133460924	0.4850441069209359	1.746813209913531
0.48402210937500056	0.12411673972843626	0.5442844325068399	2.08658346801543
0.48122705937499843	0.16086194819436508	0.6001093143927848	2.3805592343975044
0.47839286562500044	0.2005931784440518	0.6540013559650406	2.6223836892368317
0.4755189656249995	0.24307970459118713	0.7051625522764339	2.810474541261946
0.47260480937499916	0.28862880471177566	0.7574984410625472	2.94512315020896
0.46964983750000083	0.33711127216364983	0.8151362806713726	3.032739755535725
0.4666534749999997	0.3865999527138186	0.8745211359134504	3.0855775492210062
0.4636151437500017	0.4339487116823238	0.9298504352385989	3.1131985290406217
0.460534253124999	0.4767767920388246	0.9790272407716561	3.1190075037641716
0.45741020937500093	0.5142388429665937	1.0194673416081619	3.1041719520013302
0.4542424000000002	0.5463458971404156	1.0473593670743095	3.0717220965375085
0.45103022812499977	0.5731746591535573	1.0623890801621763	3.0277183676573634
0.4477730562500009	0.5952281587785366	1.0678445225942628	2.9787602685376706
0.44447025937500095	0.6146232404964393	1.0679292124102717	2.9288612366652296
0.441121206249999	0.6344808078861484	1.066573135152394	2.879332028149481
0.43772524062499985	0.657292350085293	1.0677104450751966	2.8291698251347768
0.43428169999999944	0.684175123121823	1.075170443960286	2.7751723417012024
0.43078993437500107	0.7150085487324888	1.0910260263944134	2.713747428766371
0.42724925312500034	0.7486552908773791	1.1147319776259714	2.644308477049461
0.42365897499999994	0.783517090321431	1.1439885130467224	2.5716394915887704
0.4200184156249997	0.8182250913865583	1.1747473520547356	2.5036651893343635
0.4163268562499999	0.8515349543680002	1.2003065019148365	2.445224303564348
0.4125835906249998	0.8821348973483992	1.2136416865063269	2.3954520197161298
0.408787890625	0.9091658182305724	1.2117064272935383	2.3515931114540454
0.404939028125	0.9324297173064884	1.1966008662258174	2.3122379220601363
0.4010362531249997	0.9521290429473689	1.173477878499141	2.2765933963231437
0.3970788062500005	0.9690772848586647	1.1487431912474408	2.243299139381709
0.39306592812500063	0.9844760132887674	1.1293845898711676	2.21078938847528
0.38899684687499964	0.999223107319633	1.1201144129404697	2.178109144672028
0.3848707656249999	1.0132140701183918	1.120940387993012	2.1450809088676452
0.3806868874999992	1.0250960426377298	1.1281404771485366	2.1119099834346304
0.37644440312499916	1.0332271763187815	1.1367802605779675	2.0801533073203524
0.3721424968749993	1.036755450234605	1.1434004022100372	2.052787040822823
0.36778033749999917	1.03605091674827	1.1477761929580739	2.03082589263783
0.36335707500000036	1.0321043602987419	1.1526376720357	2.0095480660955114
0.3588718499999999	1.0260634129364958	1.1606392685140026	1.9804198770127386
0.3543238000000003	1.0187494101289298	1.1697010100181973	1.9394770053162709
0.34971204687499996	1.0110371856411275	1.1733989249887755	1.8918732992759442
0.34503569687500074	1.0024361945439457	1.1664937483085434	1.8437174092933044
0.3402938437500005	0.991055036899599	1.147097135848894	1.7936036798116592
0.33548557187500094	0.9753248830848602	1.1190162690569587	1.7406532649679363
0.33060994687499945	0.9549132972382437	1.0904898058633936	1.692053714383703
0.32566603124999943	0.9314376092365009	1.0683394089971057	1.6527710191552405
0.3206528687500002	0.907682636318997	1.0545109973842774	1.6221743394498265
0.31556948125000117	0.8845714227731417	1.0468571092263201	1.6028203933609548
0.3104148874999999	0.8613665964219919	1.0411910491560128	1.5929425702754139
0.3051880968750001	0.8391470189808965	1.0346267177403898	1.576176353870713
0.29988809062500027	0.8203127159187792	1.0245870985679633	1.5440068260269308
0.2945138468749994	0.8052694662923794	1.0111905841826907	1.5104899624665944
0.28906433437500006	0.7931257962333467	1.001414391730138	1.4841295760394866
0.2835384781249999	0.7835463953071677	1.0032613716109597	1.453832589659053
0.27793522187500025	0.7754132446276932	1.0142395469263241	1.4064340498222196
0.2722534843750002	0.7650775901206643	1.0219248654376427	1.3510993177986377
0.26649215624999945	0.7491629291773721	1.0143324126850863	1.3053907054453076
0.26065013437499934	0.7293309221904899	0.9880759365936196	1.2681118882770666
0.2547262812499995	0.7106590764600604	0.9527540655863818	1.2392810433254438
0.24871944687499994	0.6972820233991801	0.9242151303681743	1.2173793799744514
0.24262847812499932	0.6906753054586621	0.9105542679220381	1.1935732107435808
0.23645219062500059	0.6899319698309916	0.9045239538414157	1.170279685889
0.23018939062499996	0.6927155625071586	0.8970122168345923	1.1563468747409271
0.22383886874999995	0.6987806388285883	0.887727458781401	1.1508451253044825
0.2173993906249998	0.7073368745395555	0.8769101268398791	1.145981932225987
0.21086971874999982	0.7164082934631609	0.8620690279373076	1.1369562002552056
0.20424858125000028	0.7247942412167508	0.8420673288349491	1.1246083678657612
0.1975346999999993	0.7320095215662448	0.8190582757476573	1.111629779566331
0.19072677203125016	0.7377358390356241	0.7977257904615737	1.0994552498531656
0.18382349062500009	0.7418307853584637	0.7812738233056977	1.0881068769557427
0.1768235124999999	0.7447674318836972	0.7677895609750605	1.0786853834395225
0.1697254874999997	0.7475821184287407	0.7531239818751237	1.0733783009153823
0.16252803125000032	0.7508114924106064	0.7362062119542995	1.0722074852606311
0.15522976562500024	0.7537023377024744	0.7184701603334237	1.072051056700378
0.14782927187500008	0.755133360426383	0.7009792808962633	1.0686598932899596
0.14032511875000012	0.7547825694663239	0.6851812558577423	1.0584440272918798
0.13271585312499953	0.7528332211072457	0.6744348172577629	1.0404545978272057
0.12500000000000008	0.7488045205886391	0.6720672793240925	1.0166790570750608
0.11805555499999976	0.7428087654720901	0.675902757760254	0.9896632227568779
0.1111111112499997	0.7355546576185711	0.682949702652104	0.9602132200577402
0.1041666662500002	0.7277329116207656	0.6908491139936476	0.9223313642138554
0.09722222250000022	0.7197329335107807	0.6977312086742548	0.8746037186494299
0.09027777749999989	0.7116009057783439	0.7013290389262106	0.8244634848549045
0.0833333337499999	0.7031596217198999	0.7007942561189108	0.7814046183031288
0.07638888875000027	0.6942924231172638	0.695849414852275	0.7469084845486613
0.06944444500000004	0.6850569713217132	0.6860590052292885	0.7189797252210638
0.06250000000000004	0.6758127145555495	0.6730134755508804	0.6973777346981637
0.05555555499999981	0.6671681049174774	0.659297698231924	0.6827608113299448
0.04861111125000011	0.659488845162935	0.6461545315203258	0.6748920220097056
0.041666666249999915	0.652576518704253	0.6341273087980894	0.6728720720526553
0.03472222250000002	0.6461389232530954	0.6243179870793187	0.6745760460982734
0.027777777499999906	0.6403616842584128	0.6183542759839219	0.6763886374695731
0.02083333374999994	0.6357554313563413	0.6168348219824655	0.6756423092210101
0.013888888749999953	0.632517246080635	0.618302719616678	0.6726691359729051
0.006944446656250006	0.6301837933557116	0.6206082115885255	0.669548610958669
0.0	0.6292298472030695	0.6084982197411617	0.6724663388830556
