0.5000000000000003	0.0019403527070117326	0.10405980980667112	0.14604196309463874
0.49742875625000194	0.0019666346582967236	0.08416267295623066	0.15239225007718013
0.49482149687500077	0.015485194193727419	0.21317431712196466	0.4638542760843893
0.49217771875000144	0.03862847323151787	0.3112160642164079	0.790299387654497
0.4894969062499981	0.06872061272661784	0.38716141977592655	1.1250447943844506
0.48677854687499983	0.10363233960623768	0.45098862680849083	1.4493926733548799
0.48402210937500056	0.14171128759723667	0.5113130314761728	1.7368611600922583
0.48122705937499843	0.1814831044365484	0.575560822088528	1.966521341616929
0.47839286562500044	0.2217302237509941	0.6463931752556551	2.1336413152487532
0.4755189656249995	0.26152673474536864	0.7202410829013908	2.2460397715363776
0.47260480937499916	0.3001214438402996	0.7929975120870304	2.316072663080214
0.46964983750000083	0.3370583446439099	0.8635639771724442	2.356602904441344
0.4666534749999997	0.3723729826314088	0.9314659920294748	2.3788808006038784
0.4636151437500017	0.4061835783656946	0.9940297949646192	2.3892773097646125
0.460534253124999	0.43811149210215156	1.0472554235997	2.387778008653596
0.45741020937500093	0.4671891361147146	1.0879543244750933	2.3712729065927416
0.4542424000000002	0.4925686859756165	1.1140292041750086	2.339390650846504
0.45103022812499977	0.5143831932071825	1.1242930361302343	2.2979237525619527
0.4477730562500009	0.5337954967523243	1.1200652337690937	2.2533578123710245
0.44447025937500095	0.5524601725123142	1.105555346255285	2.204259078257575
0.441121206249999	0.5718397596645854	1.084574299468388	2.1488388543684374
0.43772524062499985	0.5926626037365433	1.0600525770244376	2.096232883920057
0.43428169999999944	0.6146768310072636	1.0380556437692103	2.0595382892898058
0.43078993437500107	0.6370248059919732	1.0263508964309893	2.0399751920852953
0.42724925312500034	0.6588847748146313	1.0270141008867424	2.0267015848591345
0.42365897499999994	0.6799200370622871	1.0354718054221044	2.0143803326991487
0.4200184156249997	0.6998776958366629	1.0456887006569442	2.0052072624438897
0.4163268562499999	0.7173863365772856	1.0529703511184838	1.9983247866739233
0.4125835906249998	0.7297963728016309	1.0545622904945557	1.9899248402210956
0.408787890625	0.7360595874551148	1.0504693246974957	1.9782152410073373
0.404939028125	0.7383757971097765	1.042714418897456	1.9684986528550998
0.4010362531249997	0.7395648728824775	1.0337352249504226	1.970943849526332
0.3970788062500005	0.7407576904968928	1.0251596323752985	1.9910252685400875
0.39306592812500063	0.7423349257534472	1.0176502319063518	2.02433219541785
0.38899684687499964	0.7447241404458124	1.011605436972454	2.059623285996458
0.3848707656249999	0.7484066529049425	1.0072553999913623	2.086063753353817
0.3806868874999992	0.7539344271603999	1.0047555955185126	2.096623838875033
0.37644440312499916	0.761764126702275	1.0038592964678583	2.0874505317436385
0.3721424968749993	0.7716729630712775	1.0023061468829102	2.0574444347323086
0.36778033749999917	0.7821222924477428	0.9963863215410296	2.008706636094059
0.36335707500000036	0.7905729001522704	0.9828928389558722	1.9460614766643307
0.3588718499999999	0.7955427370935152	0.9607247074658762	1.8757967316569906
0.3543238000000003	0.7979273008279	0.9335693573157052	1.8033312350976498
0.34971204687499996	0.8002859985561663	0.9082103803387083	1.732148877785475
0.34503569687500074	0.8041650250999933	0.887813328756401	1.6634389973874488
0.3402938437500005	0.8088119939381943	0.8713740171610354	1.5968877038416416
0.33548557187500094	0.8126431781616663	0.8598767490795923	1.5318366563341101
0.33060994687499945	0.8148082287789292	0.8559437349112438	1.4703308940054594
0.32566603124999943	0.8151270301112272	0.8588429109794666	1.418836800967374
0.3206528687500002	0.8139981199332378	0.8636709623331608	1.3787027221158226
0.31556948125000117	0.8121912208030261	0.8679639138540752	1.3440511589372188
0.3104148874999999	0.8101361914218509	0.8729240283303915	1.3094785073346031
0.3051880968750001	0.8076491004828085	0.8793382403264595	1.2715526135127866
0.29988809062500027	0.8047837972685534	0.8865101796523186	1.2304692900226675
0.2945138468749994	0.8027204857929635	0.8937991178991082	1.189605380400116
0.28906433437500006	0.8027997021880454	0.9018320727934707	1.1535036571047765
0.2835384781249999	0.8051939484640153	0.9119784842859037	1.1269335082048508
0.27793522187500025	0.8091354645557043	0.9247732782977651	1.111280212734287
0.2722534843750002	0.8138355743995216	0.9390829723382074	1.1011530881942198
0.26649215624999945	0.8185902724420498	0.9531476029428926	1.0903073331940976
0.26065013437499934	0.8224897958549424	0.9644129350335845	1.077856254400343
0.2547262812499995	0.8241225673346526	0.9685938376164327	1.0652236432141242
0.24871944687499994	0.8220882603474511	0.9615239959119761	1.0530917592698241
0.24262847812499932	0.8162035309011749	0.9430850709517097	1.041667780361357
0.23645219062500059	0.8078034869147721	0.9183261879715576	1.0319008554040645
0.23018939062499996	0.7983765873879666	0.8946062297232504	1.0249473514183987
0.22383886874999995	0.788658035704178	0.876564699326563	1.0210995966137884
0.2173993906249998	0.7790428660581386	0.862837351725136	1.020158174318796
0.21086971874999982	0.7697102562643588	0.8478698111667439	1.02096530174131
0.20424858125000028	0.7607563558066477	0.8275113232095157	1.0199112180411491
0.1975346999999993	0.7524393268082865	0.8027961931656459	1.0125850780712953
0.19072677203125016	0.7452608934518388	0.7782087409391215	0.9969992081409967
0.18382349062500009	0.7397979965437348	0.7581830378957642	0.9748987132595567
0.1768235124999999	0.7362440352829183	0.7443562189987832	0.9503403387881731
0.1697254874999997	0.7341495862959515	0.735031263922551	0.9274653309138456
0.16252803125000032	0.732522673655591	0.727534538984958	0.9083965689068517
0.15522976562500024	0.7301196248258743	0.720471069751786	0.8924294917254035
0.14782927187500008	0.7259054548049346	0.7136801137435557	0.876662640621624
0.14032511875000012	0.7192893471412078	0.7077196009043119	0.8577955580440119
0.13271585312499953	0.7103196160485125	0.7040126353920277	0.8353659912404653
0.12500000000000008	0.6992910822985928	0.7042016697971402	0.8146878417612047
0.11805555499999976	0.6876276429726514	0.7086242107337383	0.805261783908351
0.1111111112499997	0.6763118780156221	0.7155680197034611	0.8061056342259775
0.1041666662500002	0.6656820377011693	0.7215463375150107	0.8103927123238615
0.09722222250000022	0.6573118644775102	0.7230140381346415	0.8124766715220454
0.09027777749999989	0.651621859955818	0.7173164673371594	0.8096811693868362
0.0833333337499999	0.6475262486997228	0.7048276727947287	0.8017718367438657
0.07638888875000027	0.6436651120633773	0.6890170199526706	0.7886579579017178
0.06944444500000004	0.639626765967581	0.6744135101845307	0.7709932840232142
0.06250000000000004	0.6355384765405906	0.6636617440940471	0.751584768436805
0.05555555499999981	0.6310832227460281	0.6562180207446184	0.7334979571143698
0.04861111125000011	0.6256410721157941	0.6497926835064707	0.7186192270574924
0.041666666249999915	0.6187915136750598	0.641940126535785	0.7073708388368731
0.03472222250000002	0.61054533018674	0.6308235701458152	0.6991938821168959
0.027777777499999906	0.6012348295412462	0.61630642536283	0.6934034047877435
0.02083333374999994	0.5914025357987946	0.6004634775697271	0.6898300030551489
0.013888888749999953	0.5819074458500855	0.5857461454747923	0.6884210395593098
0.006944446656250006	0.5737003238232679	0.5736898980178977	0.688250292213848
0.0	0.564335504312358	0.5365666333425685	0.6864287825536789
