0.5000000000000003	0.001856090176590825	0.08568346553861834	0.1798787861229198
0.49742875625000194	0.0016539860901731084	0.09563300450366055	0.18298744752821658
0.49482149687500077	0.012019757455106523	0.24600617857524626	0.5469615588589188
0.49217771875000144	0.02871770602653031	0.36586936679129617	0.9166180103069093
0.4894969062499981	0.049696321804285126	0.462299996603198	1.2867210236357909
0.48677854687499983	0.0738222355359506	0.5425328413263466	1.639762157349651
0.48402210937500056	0.1016006833856873	0.6128012518344624	1.9528037146532955
0.48122705937499843	0.13474922574832685	0.6756694483491477	2.2108222052417297
0.47839286562500044	0.17423731116610655	0.7312771269538331	2.412877134155949
0.4755189656249995	0.21858788788195208	0.7816593190992231	2.5671884804836713
0.47260480937499916	0.2646489051020924	0.829515411095393	2.6826353370229876
0.46964983750000083	0.3099022264441583	0.8746456932065892	2.766039749725607
0.4666534749999997	0.3534417624052789	0.9159084152045538	2.8245108319768923
0.4636151437500017	0.39492460047251304	0.9533768906606769	2.86351761737684
0.460534253124999	0.4339533166445305	0.9867112803997261	2.8820330669893948
0.45741020937500093	0.47028039079378475	1.0144615938211818	2.874911432500425
0.4542424000000002	0.5039036005741054	1.0354258546090047	2.8410381681918744
0.45103022812499977	0.5349277270242617	1.0495433175221698	2.7874188889476863
0.4477730562500009	0.5634677559763387	1.0579749738686006	2.7262044526909515
0.44447025937500095	0.5899212852732628	1.0627939993083457	2.6682830669792996
0.441121206249999	0.6152639827209535	1.0667770545092694	2.6180704286021634
0.43772524062499985	0.6409619875690273	1.0734835264805966	2.573791530468926
0.43428169999999944	0.6685388039026282	1.0856913907681873	2.5328000092504617
0.43078993437500107	0.6985489845549924	1.1029295388966731	2.4923007110729283
0.42724925312500034	0.7299678781688768	1.1222061231702336	2.447150943013726
0.42365897499999994	0.7613378954637539	1.1405055827686257	2.396137741314221
0.4200184156249997	0.7919991469079127	1.1556164636780055	2.3452498242670026
0.4163268562499999	0.8213641815287999	1.1660928216478235	2.2993533470531875
0.4125835906249998	0.8482242746433947	1.171762079743732	2.2590704099039387
0.408787890625	0.8713529430620334	1.1739746340803665	2.225076451171909
0.404939028125	0.8900349067049128	1.1748401624299276	2.1979990170456154
0.4010362531249997	0.9042682397615752	1.1758323519524574	2.1756918376778662
0.3970788062500005	0.9148847339696757	1.1768987176392276	2.15437536524246
0.39306592812500063	0.9232474286784714	1.1774381941666963	2.1320650517037363
0.38899684687499964	0.9307596643259141	1.1782327172279197	2.1099863532477015
0.3848707656249999	0.9384932164554909	1.1807541410852478	2.0918720015161094
0.3806868874999992	0.946176575261568	1.1833899769110658	2.0827822187127865
0.37644440312499916	0.9520308948109623	1.1812921164925698	2.085708880736119
0.3721424968749993	0.9547199028439213	1.1718278009842278	2.0955820601043675
0.36778033749999917	0.9551721410929329	1.1576592353289499	2.100952319624777
0.36335707500000036	0.9557208934594436	1.1445388273124042	2.0926499812352546
0.3588718499999999	0.9586723058330777	1.1354311583556262	2.0684457391580673
0.3543238000000003	0.9654810263987113	1.1281419917555506	2.0313823502123354
0.34971204687499996	0.9758646998901457	1.119410015465612	1.9833761364460065
0.34503569687500074	0.9878584952583694	1.1086890728611563	1.925304922152383
0.3402938437500005	0.9988768959879272	1.0984336626624238	1.8619313351659632
0.33548557187500094	1.0065120702281398	1.091760884428172	1.8013105990660645
0.33060994687499945	1.0091705293326276	1.0887375845253855	1.7504071886236472
0.32566603124999943	1.0062906938295215	1.085196319282075	1.7109962804278749
0.3206528687500002	0.9991202853987049	1.0756785004222642	1.6788000981511473
0.31556948125000117	0.990638060398055	1.0573505294554737	1.6481599622391905
0.3104148874999999	0.9828428050394237	1.03184885434479	1.6178725469290915
0.3051880968750001	0.9755845818302734	1.0033401793396433	1.5918158044042636
0.29988809062500027	0.9680705781668981	0.9761359415961093	1.571645471670423
0.2945138468749994	0.9609717487544971	0.9525211041133644	1.5534504241874054
0.28906433437500006	0.9556745108302677	0.9340302394370869	1.536752940312542
0.2835384781249999	0.9518795297111977	0.9230800431053059	1.5233120889248162
0.27793522187500025	0.9484172617917506	0.9218037920548666	1.510589830933822
0.2722534843750002	0.9444173388485104	0.9295864560621114	1.4975402218544667
0.26649215624999945	0.9392555159077829	0.9425042505767326	1.4894293040187814
0.26065013437499934	0.9327740079172646	0.9576793329281253	1.490987513044592
0.2547262812499995	0.9251514793499059	0.9734633448455344	1.4964681788851877
0.24871944687499994	0.9174796081971418	0.9851208167066463	1.4954142797942436
0.24262847812499932	0.9114565513385359	0.9854429616908691	1.4897676885917714
0.23645219062500059	0.9081826723563482	0.9693869281446986	1.4824239743697605
0.23018939062499996	0.9073050133864868	0.9397761080145205	1.4674404280034734
0.22383886874999995	0.9072415192950004	0.9084701460902713	1.4422117087040132
0.2173993906249998	0.907930972392707	0.8872708228175592	1.4106809515441836
0.21086971874999982	0.9106841905945824	0.8762909602992679	1.3774071169899516
0.20424858125000028	0.91571984274701	0.8661335435379784	1.3374819148886903
0.1975346999999993	0.9205204621593076	0.85341188829325	1.2877268777418212
0.19072677203125016	0.9223648715987697	0.8422913169605506	1.2378604601553087
0.18382349062500009	0.9203925468710662	0.8336891583381465	1.1941070149351298
0.1768235124999999	0.9138045791268313	0.826600306467383	1.1560187040901762
0.1697254874999997	0.9026516175378791	0.8206076520169766	1.1220587070813801
0.16252803125000032	0.8888322319055926	0.816386735172834	1.0945216716480932
0.15522976562500024	0.8747593327892859	0.8146040643685029	1.0754287965928289
0.14782927187500008	0.8611945035445921	0.8141063471151286	1.0608443066270057
0.14032511875000012	0.8478834739369405	0.8120963219640415	1.051332669642522
0.13271585312499953	0.8342087314465338	0.8048987666248787	1.0507553579498856
0.12500000000000008	0.8203811682119632	0.7896093103176787	1.0506404236390687
0.11805555499999976	0.8094473221874698	0.7668056017061715	1.038618019993776
0.1111111112499997	0.801794950290919	0.7416106208914223	1.0196876867108402
0.1041666662500002	0.7956814123118754	0.7157895452796824	1.001759631251452
0.09722222250000022	0.789761169752801	0.6927739657505174	0.987775461661933
0.09027777749999989	0.7831517410867612	0.6738648042259289	0.973689003519596
0.0833333337499999	0.7752559193870134	0.6590146449645675	0.9551754721974722
0.07638888875000027	0.7659107973400959	0.6477843191333638	0.9319611303907764
0.06944444500000004	0.7553892206750825	0.6395968008546641	0.9063482237653342
0.06250000000000004	0.7441409294731285	0.6335400257696088	0.8800153463911375
0.05555555499999981	0.732811355095936	0.6297657340939062	0.8523975669477831
0.04861111125000011	0.7223768732069724	0.629699551031946	0.8211433232977718
0.041666666249999915	0.7136524214753828	0.6340230148005446	0.7855221016005561
0.03472222250000002	0.7066449245250586	0.6421318638396923	0.7495900467973593
0.027777777499999906	0.7008635525714882	0.6529662424914898	0.7190243122547422
0.02083333374999994	0.6962257270332012	0.6648353778196233	0.6948340099471217
0.013888888749999953	0.6928960731853896	0.6755245926438171	0.6736513879664309
0.006944446656250006	0.6902236081354439	0.683215699718515	0.6540948253589076
0.0	0.7511938641645908	0.5691840789372384	0.6354856565007678
