0.5000000000000003	0.002337412084957629	0.10044070301185894	0.1985914854718682
0.49742875625000194	0.002071467693516806	0.08864051340819211	0.19739527443654026
0.49482149687500077	0.015627818470871597	0.2336839049364905	0.59394007847657
0.49217771875000144	0.038396966585264355	0.3547367424203392	0.994992039386183
0.4894969062499981	0.06712769044918168	0.45586041380296444	1.3882943243954993
0.48677854687499983	0.09879066147203397	0.5413350146300612	1.7574642979171977
0.48402210937500056	0.13102770766981606	0.613847037867442	2.087297098694024
0.48122705937499843	0.1627112547573619	0.6737311605824494	2.363684410592813
0.47839286562500044	0.194220955794413	0.7236554784249876	2.5785895048473315
0.4755189656249995	0.2268819431440621	0.7706137536934446	2.7357181773509143
0.47260480937499916	0.26173933054112064	0.8196760263584677	2.8460259986253362
0.46964983750000083	0.2985371522182671	0.8670178424400209	2.920249563519527
0.4666534749999997	0.33605044450077365	0.9023331111982615	2.9656952302514505
0.4636151437500017	0.3732851076970246	0.9194559774016606	2.985800103144384
0.460534253124999	0.4107860203891349	0.9224342802258384	2.98177075143114
0.45741020937500093	0.450831211146158	0.9221377934618445	2.9585240418574075
0.4542424000000002	0.49602155214661536	0.9287322558183265	2.928602174254366
0.45103022812499977	0.546494576534407	0.9467910487643378	2.904498111947087
0.4477730562500009	0.5990477314194717	0.975140869806989	2.8869777009250543
0.44447025937500095	0.6492348438636385	1.0091530047184198	2.8654185912661934
0.441121206249999	0.693881138288412	1.043815798050076	2.8291812784667574
0.43772524062499985	0.7317297522312477	1.0762734213008125	2.7766031280531838
0.43428169999999944	0.7629853315210597	1.1062944850671368	2.715568474747599
0.43078993437500107	0.7884894806530696	1.134626998191668	2.657745111401811
0.42724925312500034	0.8096865991987878	1.1609943308375779	2.610016319541159
0.42365897499999994	0.8280184777330578	1.183722774161642	2.56930153269716
0.4200184156249997	0.8442153835286181	1.2008171156249043	2.526970239967874
0.4163268562499999	0.8585943056507676	1.2113213400189373	2.4785521935496604
0.4125835906249998	0.8718498073097528	1.2170605680615902	2.427607886314999
0.408787890625	0.8848353374780461	1.2222280299426254	2.379236147217993
0.404939028125	0.8976747612053767	1.2295351727170443	2.333623965190649
0.4010362531249997	0.9099946525842256	1.238989923861867	2.2889517201094507
0.3970788062500005	0.9214262457168265	1.2486919470506743	2.24498264554076
0.39306592812500063	0.9320454158080205	1.2549489454807092	2.200872843240382
0.38899684687499964	0.9426227820933307	1.2544562611828844	2.1535121341766152
0.3848707656249999	0.9541596629293188	1.2466431952216488	2.0994132868784274
0.3806868874999992	0.9665852490473821	1.233545533840066	2.0368392605118095
0.37644440312499916	0.9781796257003319	1.218205951904493	1.9657175777161757
0.3721424968749993	0.9866922451559107	1.203655288780013	1.8863650045726479
0.36778033749999917	0.9917893577760593	1.193384811177723	1.7998105895655931
0.36335707500000036	0.9952922754169047	1.1898689756221894	1.7156204214075184
0.3588718499999999	0.998963556578287	1.1918595184067813	1.65097030070149
0.3543238000000003	1.0032530014604029	1.1957312531227078	1.6108376303973557
0.34971204687499996	1.0083466646771477	1.2019948303914227	1.5889834205693276
0.34503569687500074	1.0152501690355755	1.2096306906523981	1.5808457119468533
0.3402938437500005	1.0241043955299711	1.210434430213768	1.5821948644396382
0.33548557187500094	1.0318568470573655	1.1985752518709554	1.5852912937122179
0.33060994687499945	1.0345804357007053	1.1768616536569547	1.5840309861941801
0.32566603124999943	1.0321817326457918	1.1520501318115162	1.5766947457226537
0.3206528687500002	1.027684086701557	1.131041253610762	1.5645563830781821
0.31556948125000117	1.0235266098773175	1.1161344345464952	1.5505120436738178
0.3104148874999999	1.0200029546262819	1.105067894000875	1.5331680999923987
0.3051880968750001	1.0157980824749797	1.0959733439330475	1.5099440944423026
0.29988809062500027	1.0093051669505395	1.0877885902528839	1.4835428902337087
0.2945138468749994	0.9992085838380659	1.0745226803572543	1.4580008623173
0.28906433437500006	0.9854314367200534	1.049834386040468	1.4369010415587975
0.2835384781249999	0.9686370027959209	1.0154110846973217	1.4218802392501797
0.27793522187500025	0.948948325914779	0.9788048375519617	1.4090747845604072
0.2722534843750002	0.9270647117681872	0.9476453493836088	1.3928581142820888
0.26649215624999945	0.9046520503637278	0.9272157471058409	1.372070226880459
0.26065013437499934	0.8830123198209311	0.9210097126614643	1.3513360401784313
0.2547262812499995	0.8625610614741931	0.9294851160310051	1.3361341453808055
0.24871944687499994	0.8440549217155877	0.949362028630367	1.3259391810583532
0.24262847812499932	0.8295294635711287	0.9750971073328514	1.3152949315791207
0.23645219062500059	0.8205205465447227	1.000389231661456	1.2968961739113711
0.23018939062499996	0.8160723763592886	1.0203439828393206	1.2669515135510665
0.22383886874999995	0.8144896984677097	1.0309087671897013	1.2340213237214332
0.2173993906249998	0.814972319691173	1.030808685833617	1.2076602235318559
0.21086971874999982	0.8145858976609042	1.0246583886221956	1.193034840977219
0.20424858125000028	0.8090809292992315	1.013543115142289	1.1962551620072
0.1975346999999993	0.8002909319348149	0.9952717808869066	1.209838258972997
0.19072677203125016	0.793946664545284	0.9733641563463765	1.216901940890276
0.18382349062500009	0.7920677925529847	0.9528406933003247	1.2180375617529209
0.1768235124999999	0.7925913692389625	0.9374349685518919	1.2186645742084945
0.1697254874999997	0.7925246216330255	0.9303791029868113	1.2155148523939352
0.16252803125000032	0.7900804475675351	0.9328889282613193	1.2046589658877542
0.15522976562500024	0.7850018079368569	0.9410203695841133	1.1871591572937894
0.14782927187500008	0.7775797762088041	0.9434843443455794	1.1677974542631835
0.14032511875000012	0.7682054296353024	0.9307649031779054	1.1434808327877934
0.13271585312499953	0.7570044121904952	0.9073927156290087	1.1114219262321117
0.12500000000000008	0.7445134782410117	0.8799977465244437	1.080624376792758
0.11805555499999976	0.7326075311688477	0.8513021393625538	1.0579681088477293
0.1111111112499997	0.7238308655371141	0.8286145642014467	1.040352721052669
0.1041666662500002	0.7183288181029	0.8128809148946335	1.0214321892524305
0.09722222250000022	0.715820052055344	0.8017411489888809	0.9987882211993959
0.09027777749999989	0.7154320915212391	0.7900104468192044	0.9724075709281929
0.0833333337499999	0.7160145663126722	0.7751647746490117	0.9471879640367804
0.07638888875000027	0.7164291783131671	0.7585784709726073	0.9301024721920021
0.06944444500000004	0.7161622693050343	0.7424238196694851	0.9228979575483336
0.06250000000000004	0.7155655089004563	0.7274583525549893	0.9228676690735064
0.05555555499999981	0.7146727792448175	0.713424127399759	0.926020685334337
0.04861111125000011	0.7126633827314692	0.7012402271546748	0.9286652706962044
0.041666666249999915	0.7086199311260587	0.6936314816412852	0.9305539725445507
0.03472222250000002	0.7022732085319383	0.6913453098577107	0.9339768697501646
0.027777777499999906	0.6941956730403933	0.6911137411851598	0.9390494805770637
0.02083333374999994	0.685515655322317	0.6889003019114265	0.9446502826637266
0.013888888749999953	0.6774852373188118	0.6827660230376866	0.9510680422004479
0.006944446656250006	0.6712047708963951	0.6738816878859646	0.9580951362668019
0.0	0.7234893121402561	0.6036041385440819	0.962862157416446
