0.5000000000000003	0.0018099702962683637	0.07847210333583267	0.178499637926906
0.49742875625000194	0.0018896595671985227	0.0810916876790955	0.17016756173945438
0.49482149687500077	0.01374817008608587	0.21203920471090898	0.5065157724475645
0.49217771875000144	0.033508603346352056	0.32080856899848537	0.8333310502579077
0.4894969062499981	0.058954271720511146	0.4122376800311323	1.1402554086023116
0.48677854687499983	0.08806080952298669	0.4900339796739819	1.4178251423365975
0.48402210937500056	0.11931092966044828	0.5571716432766649	1.6604453502428136
0.48122705937499843	0.15173390633682216	0.6153532286195931	1.8682519942447724
0.47839286562500044	0.1848489446727515	0.66533277303154	2.0442331535026304
0.4755189656249995	0.21848367379718295	0.7093930910572968	2.187202454702619
0.47260480937499916	0.2526058646174269	0.7513538036542686	2.292618386666852
0.46964983750000083	0.28694206855385807	0.7916192107056802	2.3622176244092272
0.4666534749999997	0.32058517217791177	0.8258580480507918	2.405014969440097
0.4636151437500017	0.35287939229360327	0.8504301358686911	2.429031390287635
0.460534253124999	0.384220434019103	0.8665250614216643	2.436890239165774
0.45741020937500093	0.41500162699457244	0.8793051891140948	2.4271869002083353
0.4542424000000002	0.44506768599969543	0.8935831865088383	2.399261658322559
0.45103022812499977	0.47442069747356636	0.9101686178617074	2.357014877758001
0.4477730562500009	0.5029737656588995	0.9270686462975777	2.308003032415778
0.44447025937500095	0.5297394390955721	0.9428291996838087	2.2594037829129308
0.441121206249999	0.553330118477742	0.9569367249629989	2.215105496292768
0.43772524062499985	0.5729406006625772	0.9685109591598641	2.1753176240015004
0.43428169999999944	0.5888413606055056	0.9767538244269944	2.1375591916283354
0.43078993437500107	0.6021480172281809	0.9824714546545945	2.0981042504473697
0.42724925312500034	0.6142095456313499	0.9884666701298638	2.053785759996418
0.42365897499999994	0.6262064285242006	0.9980812148202746	2.003273096565741
0.4200184156249997	0.639148352870273	1.013035611879131	1.948158552691799
0.4163268562499999	0.6540572895524631	1.0327361042107448	1.8930873017001955
0.4125835906249998	0.6716932138927044	1.055422144835894	1.843033482015988
0.408787890625	0.6924039498861316	1.0793846599327543	1.799141602846974
0.404939028125	0.7160638976605651	1.103251028612181	1.757579451598497
0.4010362531249997	0.7416892641489966	1.125361966582574	1.714118500247609
0.3970788062500005	0.7677712428144079	1.1433103721676259	1.6696074084305583
0.39306592812500063	0.7930258022327717	1.1538078040338808	1.6285770610056087
0.38899684687499964	0.816869159660617	1.1535703433367395	1.592284959829987
0.3848707656249999	0.8389870775496456	1.1413820550121687	1.5564676016386763
0.3806868874999992	0.8585152277037071	1.1196138622157534	1.5170980819002327
0.37644440312499916	0.8737851064700856	1.0927069509165297	1.4749990801691137
0.3721424968749993	0.8840731939824877	1.065348638134111	1.4356039233144913
0.36778033749999917	0.8878066109009146	1.0416127174996894	1.4061457335336864
0.36335707500000036	0.8846072761098813	1.0264200218203976	1.3923647801404022
0.3588718499999999	0.8750956738652069	1.0232336674101314	1.3953785122747997
0.3543238000000003	0.8599875273645404	1.0275846084219233	1.4135890401809752
0.34971204687499996	0.8408190810048037	1.0294646338981877	1.4416013717799507
0.34503569687500074	0.8197060395374515	1.0230126536491313	1.4679185988574288
0.3402938437500005	0.7994467367652255	1.0089010547424604	1.4853683211190938
0.33548557187500094	0.7828752849371805	0.9918388020533712	1.4951477467394503
0.33060994687499945	0.7708736959969088	0.9792608499776265	1.5000857802056504
0.32566603124999943	0.7607807303392559	0.9770471150493965	1.501964375959685
0.3206528687500002	0.7513604676974247	0.9824844957052509	1.5033841254846378
0.31556948125000117	0.7450745722789682	0.9882694433866936	1.5044884288115483
0.3104148874999999	0.7413803339455898	0.9917034465145631	1.504446370393521
0.3051880968750001	0.7371975471663211	0.9903240010447405	1.5047147813694841
0.29988809062500027	0.7315723942955021	0.9835213106465513	1.5067449263430905
0.2945138468749994	0.7262174194779208	0.974872378920597	1.5115681066002218
0.28906433437500006	0.7234036756313704	0.9666939998286567	1.5174671139749132
0.2835384781249999	0.7239995900250781	0.957723401567942	1.521253019526791
0.27793522187500025	0.7272159636084521	0.9452158418490729	1.5214796239285144
0.2722534843750002	0.7310243566704743	0.9274595250501161	1.5185572179759212
0.26649215624999945	0.7335986972801163	0.9035652259906481	1.5125816649836563
0.26065013437499934	0.7350458806409587	0.8761365926883579	1.5021714854084958
0.2547262812499995	0.7369210127917599	0.8513547829467021	1.4862837275676906
0.24871944687499994	0.739768826056929	0.8327335432838805	1.4678076289501887
0.24262847812499932	0.7423230509297983	0.8200026266993621	1.4506311699010583
0.23645219062500059	0.7432822189888604	0.8119370493081585	1.431850514017858
0.23018939062499996	0.7429629753473594	0.8064006226293445	1.3975965092984322
0.22383886874999995	0.7421041515653671	0.8015178574696034	1.339265393159993
0.2173993906249998	0.7402519301710134	0.7954722075023679	1.2832590357237537
0.21086971874999982	0.736125585631018	0.7888612628590213	1.2554775692807225
0.20424858125000028	0.7279423050217787	0.786642726618589	1.2405578531796446
0.1975346999999993	0.715879765913407	0.7877031487358808	1.2229074274764962
0.19072677203125016	0.7024185897211864	0.7846825516698342	1.2003098318589411
0.18382349062500009	0.6898112135690333	0.7721299399062769	1.1755929969462346
0.1768235124999999	0.6796154235866793	0.7510364100609827	1.153127552812429
0.1697254874999997	0.6734796284422531	0.7290995337825782	1.133490030990339
0.16252803125000032	0.672721161281141	0.7158713428501683	1.1126905325874237
0.15522976562500024	0.676671984956289	0.7173208350276253	1.0897634006719832
0.14782927187500008	0.6828637569041069	0.7327671203136531	1.0669425420142276
0.14032511875000012	0.6893423280395576	0.7553092749410363	1.0459747238437522
0.13271585312499953	0.6947224779870794	0.7765771385604466	1.0276316978795557
0.12500000000000008	0.6978683743323795	0.7903758785497799	1.013852238675991
0.11805555499999976	0.6979757663064942	0.7935983262818062	1.0044106590156991
0.1111111112499997	0.69664575520292	0.7908071909851334	0.9958578554535324
0.1041666662500002	0.6945798159754176	0.7854505044626984	0.9830895033402682
0.09722222250000022	0.691867059535385	0.781502918164129	0.9670416612761846
0.09027777749999989	0.6876919928629862	0.7816878170854181	0.9500087270821276
0.0833333337499999	0.6813652014137104	0.7858522011798482	0.9317504166857173
0.07638888875000027	0.6729429111592405	0.7888899535841478	0.9079614993116625
0.06944444500000004	0.6629942977378994	0.781598528470549	0.8757388620135835
0.06250000000000004	0.6522968672878996	0.7597195351243617	0.8397330544514513
0.05555555499999981	0.6416543967781603	0.7281293612605704	0.8081971759548999
0.04861111125000011	0.6313392988803376	0.6942994589286091	0.7867622665301517
0.041666666249999915	0.6210245152796476	0.6627895525811105	0.7772933663286439
0.03472222250000002	0.6102873935267599	0.6355652108236792	0.7784335789089059
0.027777777499999906	0.599002705672125	0.6133013180827502	0.7863848475601612
0.02083333374999994	0.5876717233371135	0.5955599515276312	0.7969445565671592
0.013888888749999953	0.5774564910633553	0.5813014262317858	0.8071670446579841
0.006944446656250006	0.5695335004240134	0.569695147185983	0.815159841795667
0.0	0.5479188188000026	0.5334754343296144	0.80990062016557
