0.5000000000000003	0.002052656288369909	0.10234857787920713	0.18000487414003422
0.49742875625000194	0.002215115385703527	0.09518167730497713	0.18187309255898304
0.49482149687500077	0.01643026283573661	0.2549807324545156	0.5493913418020334
0.49217771875000144	0.03962909618922088	0.3882633556062081	0.9227338434031301
0.4894969062499981	0.06797005395084899	0.49672802923022724	1.2869349127529992
0.48677854687499983	0.09844859114584521	0.5818026469766396	1.6221389704765976
0.48402210937500056	0.12989148025765648	0.6459611035791686	1.9120365291119055
0.48122705937499843	0.16236780130825085	0.6928857231921653	2.1445791160983054
0.47839286562500044	0.19621559690785884	0.7266044900286462	2.3153524566270534
0.4755189656249995	0.23203354709249863	0.7516365014304313	2.429626641894347
0.47260480937499916	0.2701757786839617	0.7735100247925485	2.4976319119278685
0.46964983750000083	0.30961143372780703	0.7976896167541944	2.5294592300417253
0.4666534749999997	0.3484292028581936	0.8270319024556075	2.5340510555251186
0.4636151437500017	0.3848689502444647	0.8599831444532536	2.5181433149466272
0.460534253124999	0.4175522602920743	0.8918962339441411	2.4843995971846624
0.45741020937500093	0.445873677918347	0.9186136586595057	2.4360723020427653
0.4542424000000002	0.4704154329068631	0.9394653881797326	2.381488767386843
0.45103022812499977	0.49219061158257404	0.9556601102962192	2.327152564642094
0.4477730562500009	0.5115128163987419	0.9646210893630923	2.2717714214641416
0.44447025937500095	0.5279447501697356	0.9613385202267428	2.211808027478148
0.441121206249999	0.5409782481217359	0.9474444134170642	2.1471105417187704
0.43772524062499985	0.5508311418415064	0.93200007637933	2.0809353641561676
0.43428169999999944	0.5585588990675404	0.9219344704120388	2.019924507409116
0.43078993437500107	0.5652313517310963	0.9164335402018496	1.9721335768328683
0.42724925312500034	0.5711697294531739	0.9115625565927151	1.9400455345951577
0.42365897499999994	0.5761929628222138	0.9064295465677898	1.9174283396642586
0.4200184156249997	0.5805208576335958	0.90112470688941	1.8959220864354376
0.4163268562499999	0.5847666272534652	0.8932664627997088	1.8722626220920715
0.4125835906249998	0.5894623375969186	0.8810926314710006	1.8472157916525178
0.408787890625	0.5949478076137089	0.8679061000788245	1.8190461140830245
0.404939028125	0.6012299842706079	0.8602062944007541	1.78278114893289
0.4010362531249997	0.6088579734503259	0.8594470173611504	1.7380520708647638
0.3970788062500005	0.6188300917893603	0.8635012947692604	1.6908810207964866
0.39306592812500063	0.6311759496307509	0.8727753099080726	1.6474970084266236
0.38899684687499964	0.644448411970429	0.8840533802552433	1.6105684176423893
0.3848707656249999	0.6567765543787849	0.8916152013529001	1.5795838772335553
0.3806868874999992	0.6672924362158673	0.894485571661466	1.5530958866019453
0.37644440312499916	0.6759734155886761	0.8955026885270186	1.5305190886411613
0.3721424968749993	0.6831522163357594	0.8973518072824274	1.5112333061360081
0.36778033749999917	0.6888967113817346	0.9010024834387528	1.4936699469221908
0.36335707500000036	0.6928059272905461	0.9058881559609686	1.4765498052388233
0.3588718499999999	0.6947540971699852	0.9108250457227722	1.4604136598227626
0.3543238000000003	0.6954810625795886	0.9148689357397833	1.4469664071910362
0.34971204687499996	0.6963804516681418	0.9173860899313495	1.4368882311517108
0.34503569687500074	0.6986848346975753	0.9177309624001827	1.4289552978051017
0.3402938437500005	0.7026714320309874	0.9149411315592777	1.4211655599797248
0.33548557187500094	0.7078973922955927	0.9083324202801616	1.4120089178708315
0.33060994687499945	0.7140255086712602	0.8981486056723526	1.400463737633726
0.32566603124999943	0.7211162028955328	0.8848462339677428	1.3858736501498707
0.3206528687500002	0.7295030563469191	0.868352459220124	1.368485698113995
0.31556948125000117	0.739273825685385	0.8486246909229711	1.3492825190305857
0.3104148874999999	0.7501088499070655	0.8269446562367951	1.3293547728127229
0.3051880968750001	0.7614005531676379	0.8065070460359393	1.3094349492971438
0.29988809062500027	0.7721753967929992	0.7909997528982716	1.2896035714418868
0.2945138468749994	0.781699992622343	0.7821074999661569	1.2697325716307357
0.28906433437500006	0.7897011255320516	0.7785495542391179	1.250756768004141
0.2835384781249999	0.7961463970452469	0.7770342749299741	1.234309135092852
0.27793522187500025	0.800897449551133	0.7737088602710304	1.2200735862001852
0.2722534843750002	0.8039024295881084	0.7659567542593027	1.2054455384373903
0.26649215624999945	0.8054703238369857	0.7548929871148977	1.1900013420613633
0.26065013437499934	0.8061557348765118	0.7456299323045753	1.1778368822120937
0.2547262812499995	0.8067312279513325	0.7434929869209783	1.1729625350337693
0.24871944687499994	0.8079392875105721	0.7499684145307683	1.1747005657299272
0.24262847812499932	0.8098655242240224	0.762729092691963	1.1788043137292092
0.23645219062500059	0.8121095924324544	0.7781711763687029	1.181058516002643
0.23018939062499996	0.8140411408888476	0.7929643975502157	1.1791422262297746
0.22383886874999995	0.8147946027633434	0.8046752557899762	1.1705672537037732
0.2173993906249998	0.8129679138022046	0.8125437473485732	1.1497413403304095
0.21086971874999982	0.807363405463216	0.8180587532834609	1.111845800270539
0.20424858125000028	0.7983940270533575	0.8229093105111802	1.0636887683343725
0.1975346999999993	0.7877870554563641	0.8256119888935204	1.0205805419571317
0.19072677203125016	0.7769443666493543	0.8201781642166293	0.9919414278941876
0.18382349062500009	0.7671122780083645	0.8023935503057468	0.9768427265145918
0.1768235124999999	0.7595544022187544	0.7795498757497481	0.9695291458382846
0.1697254874999997	0.7541775886098939	0.7599115081195267	0.9661161493015955
0.16252803125000032	0.7507013726802599	0.7442905969180164	0.9592179916623558
0.15522976562500024	0.7489115367735578	0.7317817017948233	0.9429681835342059
0.14782927187500008	0.747868150492942	0.7221143694461879	0.9175807391719153
0.14032511875000012	0.7464289722499629	0.714137578436578	0.885703935941913
0.13271585312499953	0.742698563356123	0.706890091707714	0.8487472309046377
0.12500000000000008	0.7350867746203218	0.7019190400577838	0.8108720718197829
0.11805555499999976	0.7233416373562048	0.6984363637917997	0.7777217018727081
0.1111111112499997	0.7110383471319948	0.6954866622571436	0.751137310127552
0.1041666662500002	0.6999820951576174	0.6926383481428277	0.7300698532634636
0.09722222250000022	0.6902604743956079	0.6918541242037735	0.7149334045402106
0.09027777749999989	0.6805359752582515	0.6923251055904497	0.7059627709637767
0.0833333337499999	0.6695699165205349	0.6914318979683544	0.7034298720109923
0.07638888875000027	0.657067087866436	0.687334677842506	0.7068079336671906
0.06944444500000004	0.6435262807258733	0.6801686092327933	0.7140057494609007
0.06250000000000004	0.6297047825266913	0.6710947179220785	0.7208778298290774
0.05555555499999981	0.6161761372098403	0.6606681205830831	0.7225365123575496
0.04861111125000011	0.6033940376361221	0.6486533288687011	0.7153531880602019
0.041666666249999915	0.591928936192355	0.6348681700881333	0.6979240314909557
0.03472222250000002	0.5821864805331163	0.6199427045816799	0.6719593439618023
0.027777777499999906	0.5741114901016744	0.6044151865096372	0.6421535561533035
0.02083333374999994	0.5673527787507656	0.587897560029171	0.6127371554987694
0.013888888749999953	0.5615739589984035	0.5703453769210223	0.5855892252651904
0.006944446656250006	0.5568203236983348	0.5544571423779789	0.5632049335969834
0.0	0.5559235725105064	0.5190670346522158	0.5460533307234043
