0.5000000000000003	0.002628956498687729	0.09780744146213209	0.15604499391497018
0.49742875625000194	0.00251732599607403	0.08863547748747753	0.16416362795640668
0.49482149687500077	0.019612673742242053	0.23420329252027608	0.48876261425448125
0.49217771875000144	0.04765694706177727	0.35607898854983905	0.8082670590434281
0.4894969062499981	0.08273674229451183	0.4566464217359757	1.113074370713517
0.48677854687499983	0.12152133978874043	0.5387771819841233	1.3951739517686526
0.48402210937500056	0.16126772608746334	0.6060042100450801	1.649413446821089
0.48122705937499843	0.1996647606451169	0.6607614983464872	1.8688955149461572
0.47839286562500044	0.2352912185988816	0.7049453987807573	2.0452324876304044
0.4755189656249995	0.26813499721041195	0.7422603498515679	2.174566990908362
0.47260480937499916	0.298918470290543	0.7767876495543551	2.2609313208045756
0.46964983750000083	0.32793290765040123	0.8080343175095376	2.312499276323873
0.4666534749999997	0.3550814289370294	0.8307618802587122	2.3371903589044387
0.4636151437500017	0.38070217348553204	0.8413944752349358	2.342847664577297
0.460534253124999	0.4056903460836986	0.8429254506862984	2.3375916479832877
0.45741020937500093	0.43044937305015507	0.8437758372585886	2.32711191428323
0.4542424000000002	0.4542622330771911	0.8517042757494035	2.3133853125237214
0.45103022812499977	0.4760350638792405	0.8677200260901123	2.2962770226626565
0.4477730562500009	0.49591056803263395	0.8872546523700826	2.2747857329861163
0.44447025937500095	0.515319649822743	0.9069083222162654	2.2485007358015365
0.441121206249999	0.5355888437969832	0.9272132612794001	2.2185927642455177
0.43772524062499985	0.5567039409590543	0.949540786840121	2.1857620580511803
0.43428169999999944	0.5774736872228099	0.973836707719862	2.148432290409157
0.43078993437500107	0.5965276045713364	0.9992943539367315	2.1047638009490615
0.42724925312500034	0.6130235065898293	1.0243792807761536	2.0570696192326934
0.42365897499999994	0.6268686492329537	1.0467340244856946	2.0115768439373385
0.4200184156249997	0.6388369115934849	1.0648765928966155	1.9732352370072979
0.4163268562499999	0.6505070572539438	1.0799949699793934	1.9434113697299944
0.4125835906249998	0.6636771780313295	1.094857329029664	1.9216168457462497
0.408787890625	0.6792761123793777	1.1104865164608972	1.9063851392232796
0.404939028125	0.6964336223727099	1.12449395041942	1.8937523347733916
0.4010362531249997	0.7130534446092796	1.133278831299567	1.8772500165714312
0.3970788062500005	0.7277231182804065	1.1349396872422752	1.8523955983206033
0.39306592812500063	0.7408903225071716	1.1303825015492084	1.8200240477438985
0.38899684687499964	0.7537322792681942	1.1225857264469201	1.7845470545320596
0.3848707656249999	0.7669767250600761	1.113758189567303	1.7524603130498022
0.3806868874999992	0.7808040699647592	1.1026220496658277	1.730059988141123
0.37644440312499916	0.7947947493956934	1.0849096707846073	1.7197930078078445
0.3721424968749993	0.8075258681792227	1.0592931524352018	1.7196640320012033
0.36778033749999917	0.8171578031380223	1.03306879170016	1.7248355038080834
0.36335707500000036	0.8225526311152999	1.0126897341049654	1.7305400955028214
0.3588718499999999	0.8235825447558034	0.9968908691675052	1.734351480870981
0.3543238000000003	0.8210121230203016	0.9855259449772674	1.7351753411398956
0.34971204687499996	0.8162191093424882	0.981540384046934	1.732367824612936
0.34503569687500074	0.8103109431075356	0.9849724186624249	1.7260851624025495
0.3402938437500005	0.8038588424471841	0.990438025189339	1.7173674644808008
0.33548557187500094	0.797383197507997	0.991880430427991	1.7074965785494658
0.33060994687499945	0.7918988606293176	0.989244224250501	1.6965940777138284
0.32566603124999943	0.7883550913973172	0.9862324125848555	1.6826374426449506
0.3206528687500002	0.7868914201574767	0.9811052810951754	1.6640642859986274
0.31556948125000117	0.7870342132677578	0.9676346687233873	1.6422893767614948
0.3104148874999999	0.787993570070117	0.9463627806418127	1.620664673782898
0.3051880968750001	0.7891440167053617	0.9266777778863619	1.6005293186901297
0.29988809062500027	0.790227450954417	0.9159038679001585	1.5785502990560585
0.2945138468749994	0.7909272165908724	0.9120634963354419	1.5510371116357817
0.28906433437500006	0.7908098824939451	0.9093364765967098	1.5201084305121182
0.2835384781249999	0.7895160168578594	0.9043859571492611	1.4929121739058608
0.27793522187500025	0.7867149184327885	0.8972450672602943	1.4741654065158187
0.2722534843750002	0.7823508829995375	0.8896385070228303	1.4623242710685538
0.26649215624999945	0.7769474985388283	0.8833449608892093	1.4541792621722625
0.26065013437499934	0.771390028822744	0.8790636049437522	1.4493741387887413
0.2547262812499995	0.7658513106453587	0.8755778531386764	1.447548870953618
0.24871944687499994	0.7591237229073695	0.8703283332567192	1.443631952199933
0.24262847812499932	0.7501281848201244	0.8628879607105346	1.4314526969574608
0.23645219062500059	0.7395114000212166	0.8555744444433113	1.4084774999969538
0.23018939062499996	0.7289914059556686	0.8489675679338157	1.3751562236563168
0.22383886874999995	0.7194691382747017	0.8430482540873162	1.335119755731443
0.2173993906249998	0.7107516055793	0.8377803443697189	1.2933978261347852
0.21086971874999982	0.7024346303979228	0.831702824571939	1.252712986135293
0.20424858125000028	0.6946427118911145	0.8251414550322816	1.21289724630757
0.1975346999999993	0.687715775038103	0.8200209702652036	1.1722353371942666
0.19072677203125016	0.6813889402771419	0.8162178709651744	1.1317328372677269
0.18382349062500009	0.6744859019666568	0.8107888918018304	1.0979980282903576
0.1768235124999999	0.6654959692735872	0.8004596554445712	1.076377845061707
0.1697254874999997	0.6540740615766056	0.784009124784434	1.0635141946029776
0.16252803125000032	0.64200859429038	0.7641780572621512	1.0509397151752138
0.15522976562500024	0.632549663491142	0.7472239133938539	1.0318962348127145
0.14782927187500008	0.6285268246152771	0.7376365688887755	1.0055582919023294
0.14032511875000012	0.630422154934195	0.7344202634193971	0.9760319717975041
0.13271585312499953	0.6355967091407204	0.7368494656974166	0.9463971387132059
0.12500000000000008	0.6399286172342814	0.7477146606871811	0.9161270589287906
0.11805555499999976	0.6411295071383957	0.7589191704827589	0.8867344621056708
0.1111111112499997	0.6400339598527967	0.761804539236343	0.8617171151787792
0.1041666662500002	0.6385387914066758	0.7540404219207917	0.8440285518746647
0.09722222250000022	0.6370418893755805	0.7368173038131393	0.838379834496529
0.09027777749999989	0.6352305532088203	0.7099241360818505	0.8421247189063131
0.0833333337499999	0.632610679389557	0.6784006477802919	0.8487640219433661
0.07638888875000027	0.6300764817011177	0.6487388358366052	0.8552550957440224
0.06944444500000004	0.6286545806335289	0.6252887590569409	0.8597206689848103
0.06250000000000004	0.6281203198490452	0.6121323420645304	0.8602225415891034
0.05555555499999981	0.6276424991804079	0.6074771449568275	0.8562170094700424
0.04861111125000011	0.6268142365215521	0.6057505175092297	0.8485192061839377
0.041666666249999915	0.6252992145186799	0.6039937306060383	0.8385391695941667
0.03472222250000002	0.6228479070712348	0.6026251706015701	0.8279336980969859
0.027777777499999906	0.619746227184608	0.6029448976621335	0.8183205923134262
0.02083333374999994	0.616701199449516	0.6048519956218269	0.8108328540361927
0.013888888749999953	0.6143773555315065	0.6070325244525974	0.805373041147334
0.006944446656250006	0.6130059431694563	0.6088696636517267	0.8015500994080375
0.0	0.5955340121553553	0.6200369085991749	0.7861741097834538
