0.5000000000000003	0.0020043858759990762	0.10439465592858123	0.17662294343813043
0.49742875625000194	0.002212189599282399	0.09941844264358927	0.1951281736027047
0.49482149687500077	0.016972997175483555	0.2567295249295902	0.59749998030451
0.49217771875000144	0.04171647720766234	0.3820804641040777	1.018187342204869
0.4894969062499981	0.07388535498124611	0.4828814816702569	1.4363073827663688
0.48677854687499983	0.1117704441636509	0.5670002171110045	1.8151262628726703
0.48402210937500056	0.1542612955898897	0.6427117075880615	2.1222389981983607
0.48122705937499843	0.19990481370880891	0.7147100294163936	2.3445608966791043
0.47839286562500044	0.24682597212609272	0.7813944873118516	2.488181586239635
0.4755189656249995	0.2927052094567296	0.8376944245291207	2.568868187917914
0.47260480937499916	0.33507795711347316	0.8782532098677354	2.599440564997027
0.46964983750000083	0.37308037532281196	0.9003620030572776	2.5894624599811817
0.4666534749999997	0.4080153470831926	0.9072111023132307	2.5531667445625312
0.4636151437500017	0.44143545870581885	0.909435836664103	2.506696864327748
0.460534253124999	0.47359940844259535	0.9207705618503645	2.456861877262386
0.45741020937500093	0.5038528149707677	0.9465344216307637	2.400002347397869
0.4542424000000002	0.5314138444948842	0.9783825017228677	2.332340431375237
0.45103022812499977	0.5559330572074213	1.0038832154421886	2.25606003214363
0.4477730562500009	0.5776509041006278	1.0157256754569783	2.17696732536941
0.44447025937500095	0.5973557011403023	1.012915248391525	2.101377883639134
0.441121206249999	0.6159518609360015	1.0007623646887271	2.0353381515058704
0.43772524062499985	0.6337578574542185	0.9872152359235029	1.9827198294812927
0.43428169999999944	0.6506716389742006	0.9774770461135979	1.9414377528081694
0.43078993437500107	0.6664384557197909	0.9733494195780925	1.9039360197546176
0.42724925312500034	0.6802995876507172	0.974409381224467	1.8635360207956133
0.42365897499999994	0.6911807101039008	0.9789334719102593	1.8202138679677315
0.4200184156249997	0.6983794253293633	0.9855677683891956	1.7799765609156994
0.4163268562499999	0.7018459589213617	0.99476692739748	1.7495806237688003
0.4125835906249998	0.7023134624099738	1.0084002214627936	1.7315707796911484
0.408787890625	0.7012946100773315	1.027233319427318	1.7227917906261008
0.404939028125	0.700671853573556	1.047805850025696	1.7185209955682625
0.4010362531249997	0.7017258835683273	1.0632275630405514	1.7172176326840103
0.3970788062500005	0.7040595407449352	1.0702452246484828	1.7193610670735784
0.39306592812500063	0.7059896123786273	1.072650349099448	1.7225484283624655
0.38899684687499964	0.7066877854571835	1.0725272597053659	1.7232333638270436
0.3848707656249999	0.7071758143327215	1.0667522898903312	1.7231353290831612
0.3806868874999992	0.7090898964610852	1.0551180313357016	1.7262842864653838
0.37644440312499916	0.713281943180134	1.0420496226808935	1.7323404314368498
0.3721424968749993	0.7200678163532961	1.03090339732897	1.736602193156699
0.36778033749999917	0.7294663351811094	1.0219480761148496	1.7339000089902799
0.36335707500000036	0.7402258996933252	1.0146223687797131	1.7212620079257408
0.3588718499999999	0.7497340173695891	1.0085990349530394	1.7004453939804607
0.3543238000000003	0.7561137716160268	1.0030003859350043	1.6784279641382212
0.34971204687499996	0.7595643540229613	0.9965478701715057	1.6603641682171246
0.34503569687500074	0.7614110790577255	0.9878845205943259	1.6454156817113137
0.3402938437500005	0.7626744694605821	0.9775448161051312	1.6315259389147496
0.33548557187500094	0.7640967633071302	0.9688944046885232	1.617060928887876
0.33060994687499945	0.7663076774322748	0.9651105549198111	1.5998021885303708
0.32566603124999943	0.7693557123994835	0.9658284298207344	1.578557511944905
0.3206528687500002	0.7729551625984477	0.9678523961049252	1.554164519050972
0.31556948125000117	0.7770699638392792	0.9688389588131647	1.5275486160605847
0.3104148874999999	0.7813899700760799	0.9679743561377229	1.4977773177867184
0.3051880968750001	0.785028204345556	0.9631467698777061	1.462734377078355
0.29988809062500027	0.7873958761441352	0.951706351989394	1.421878580391916
0.2945138468749994	0.7888092493940411	0.9338858920427509	1.377096612718067
0.28906433437500006	0.7898518680985398	0.9133765436741371	1.3308613577608825
0.2835384781249999	0.790721618962326	0.8948099511761431	1.28488062340675
0.27793522187500025	0.791026395320572	0.8803308143420153	1.241412172319196
0.2722534843750002	0.7899724927701645	0.8684832458884493	1.2040024592642318
0.26649215624999945	0.7872818007287152	0.855702413188361	1.176211249839804
0.26065013437499934	0.7832670421860508	0.8408553146243851	1.159529653362619
0.2547262812499995	0.7782324851582838	0.827185449592364	1.153371101859962
0.24871944687499994	0.7721797308682569	0.818402563930135	1.155980213443166
0.24262847812499932	0.7653487319932952	0.8154768190726722	1.163097216874624
0.23645219062500059	0.7581980144156873	0.8174521801692639	1.169111052482919
0.23018939062499996	0.7508424278041449	0.8221845980909646	1.1705413995690503
0.22383886874999995	0.7431723508012964	0.8267770612272447	1.1670859308359811
0.2173993906249998	0.7348732931241697	0.8282952464801344	1.1598653590827532
0.21086971874999982	0.7254655643047024	0.8245742449661625	1.1500431803399345
0.20424858125000028	0.7148736360259507	0.8157829694523414	1.139212127217168
0.1975346999999993	0.7039080667277676	0.8042870504500303	1.1291641503882488
0.19072677203125016	0.6936013050917785	0.7919521956461258	1.1202445894022435
0.18382349062500009	0.6836982799249209	0.7789851591785246	1.110587213260464
0.1768235124999999	0.673284368090643	0.7644244482695546	1.0977772461394788
0.1697254874999997	0.663456248811339	0.7480907017512453	1.0813218189446712
0.16252803125000032	0.6563891795582596	0.7315661456124954	1.0631464559357242
0.15522976562500024	0.6526684461209843	0.7174265621687713	1.045138043623969
0.14782927187500008	0.6510575814284247	0.7070848852525669	1.0237405016246137
0.14032511875000012	0.649735933868315	0.7015528512635982	0.9934273008038667
0.13271585312499953	0.647433060759798	0.7016151547415082	0.9576291602016229
0.12500000000000008	0.6439937480579194	0.7052735128561348	0.9260978696255955
0.11805555499999976	0.6388520458986532	0.7089397140627766	0.9051955659194214
0.1111111112499997	0.6324065642162967	0.7124984606954329	0.893047627490622
0.1041666662500002	0.6241198498013436	0.7142962564972467	0.8830035027805764
0.09722222250000022	0.6138864209656115	0.7127456445704067	0.8708075326263746
0.09027777749999989	0.6021426031004133	0.7074403797952413	0.8547376970536524
0.0833333337499999	0.5897059940572035	0.6985750491502217	0.8347986607396187
0.07638888875000027	0.5776536707564237	0.6864331356764256	0.8129975064866414
0.06944444500000004	0.566581147977146	0.6716941712653546	0.7938088856891663
0.06250000000000004	0.5565585814424179	0.6558572006005721	0.7814988428868493
0.05555555499999981	0.5474531604939293	0.6407692410156599	0.7773838061628278
0.04861111125000011	0.5393223687230447	0.6276439033108112	0.780372980098987
0.041666666249999915	0.5325770477496848	0.6168689921251244	0.7882567391397141
0.03472222250000002	0.5278521705953396	0.6080445008158084	0.797689457122927
0.027777777499999906	0.525658151622536	0.5987514204860318	0.804718363743637
0.02083333374999994	0.5261279547323023	0.5852174432007222	0.8079914445489427
0.013888888749999953	0.5286882980461816	0.567344379571109	0.810059293570154
0.006944446656250006	0.5318501666360389	0.5504569256654548	0.81277403422157
0.0	0.494334768016744	0.5664653883280159	0.8141647045175784
