0.5000000000000003	0.002250588114804566	0.10919494122755903	0.2025752168798407
0.49742875625000194	0.00209360888079317	0.11336647294560918	0.20794492463975364
0.49482149687500077	0.017459495175067244	0.29015309084779667	0.6253167004397492
0.49217771875000144	0.04424534043367974	0.42743090901955494	1.0316552702518362
0.4894969062499981	0.07774771789964693	0.5378229328104178	1.402975749864956
0.48677854687499983	0.11290963842151741	0.6325428304718325	1.725157710545098
0.48402210937500056	0.1462713706363444	0.7155693933295317	1.9937785150144907
0.48122705937499843	0.17692830912217583	0.787223253824233	2.2118461301757546
0.47839286562500044	0.20643281020349105	0.8485125782729203	2.3869366429104324
0.4755189656249995	0.23711539678077323	0.900329036612517	2.5192758632252947
0.47260480937499916	0.2703437051895408	0.9418456515754972	2.60239122895216
0.46964983750000083	0.30618221310142424	0.972150715443231	2.63974323300395
0.4666534749999997	0.34357890154024573	0.992248539769784	2.6476695420195773
0.4636151437500017	0.38124865213067854	1.0055123197097993	2.6437595881980616
0.460534253124999	0.41870050155295335	1.0169006813125656	2.6391103912422818
0.45741020937500093	0.4557830213887603	1.0302514228035267	2.634808689326583
0.4542424000000002	0.4917907033948511	1.045765643845069	2.621999202174895
0.45103022812499977	0.5258142458166079	1.0600707369309355	2.5889460775938686
0.4477730562500009	0.5576603495046052	1.0681316089676312	2.52956629476154
0.44447025937500095	0.5876757437301988	1.0665055890089614	2.4466679872000268
0.441121206249999	0.6163402687137781	1.0567579848731166	2.351034683500513
0.43772524062499985	0.6445079947389609	1.045257099417347	2.2566730338163032
0.43428169999999944	0.6730303599680595	1.040431753139609	2.1710319472125192
0.43078993437500107	0.7020293659863619	1.0504483969314933	2.0922667098750667
0.42724925312500034	0.7313454348514641	1.0752528150182679	2.0153512210309303
0.42365897499999994	0.7604999627598128	1.1060054633053398	1.9371470092504084
0.4200184156249997	0.788061663752273	1.1357876479868276	1.8617004476038734
0.4163268562499999	0.8128766350604469	1.1623836575557827	1.7990494085507336
0.4125835906249998	0.8348532285678577	1.1850147533692401	1.7561707745114186
0.408787890625	0.8538845304733814	1.2029931843191397	1.7332609600130406
0.404939028125	0.869254267567264	1.2148747429756868	1.7272839101395006
0.4010362531249997	0.880513264669387	1.2183130734138992	1.7330326660579305
0.3970788062500005	0.8884641121849256	1.212761824895552	1.7417337848244618
0.39306592812500063	0.8941591571836613	1.2013206386479212	1.7442595071586726
0.38899684687499964	0.898231997457345	1.1893444265873727	1.7371974895483078
0.3848707656249999	0.9010701472962336	1.1806641624691252	1.723611613690128
0.3806868874999992	0.902889067688451	1.1746778835420966	1.7064906169559024
0.37644440312499916	0.9033712774191661	1.1679405854883758	1.685286256159278
0.3721424968749993	0.9016753531972316	1.1571259035693666	1.6600149512295506
0.36778033749999917	0.897418145954275	1.140909527179362	1.632567823095302
0.36335707500000036	0.890749466329394	1.1207811871707996	1.6038726098595562
0.3588718499999999	0.8823666669121554	1.1001144058107775	1.5729762308665853
0.3543238000000003	0.8735106394276744	1.0818803491069704	1.5393264349336389
0.34971204687499996	0.8655836613917584	1.0682725368638404	1.5040280529733148
0.34503569687500074	0.8594897312556979	1.0619610122879892	1.4699136984491996
0.3402938437500005	0.8550040768054552	1.0638027860576138	1.4393628274011623
0.33548557187500094	0.8516048610915404	1.069660810689798	1.4118520391517981
0.33060994687499945	0.8492834061154787	1.0732511100287523	1.3862110991880208
0.32566603124999943	0.8478935402793413	1.07171512590874	1.3617249557484248
0.3206528687500002	0.8468284749455296	1.0661587806617727	1.3365556293170775
0.31556948125000117	0.8452171444588596	1.0592775370915752	1.3106689811193533
0.3104148874999999	0.8424023889173619	1.0521578427923757	1.2865046972445071
0.3051880968750001	0.8380362378745808	1.0431415794481038	1.2644992095863579
0.29988809062500027	0.8321538254319046	1.0311046213896307	1.2428377576316816
0.2945138468749994	0.8251809753107927	1.0174084810495216	1.2228204955267692
0.28906433437500006	0.8176673020371641	1.004437196669367	1.207350377887315
0.2835384781249999	0.8102806828762686	0.9940038449947809	1.1945174157460587
0.27793522187500025	0.8035438310822002	0.9879447971580447	1.1786362647675404
0.2722534843750002	0.7976273033559743	0.9876435823002632	1.1571060486580413
0.26649215624999945	0.7924153668206174	0.9919251061436378	1.134845399121033
0.26065013437499934	0.7875797477542156	0.9982548879254536	1.118117791161306
0.2547262812499995	0.7827082152403119	1.005224239640518	1.108355117862056
0.24871944687499994	0.7770309854862858	1.0126760884411918	1.1042515366933487
0.24262847812499932	0.7696204308179035	1.0199459943792188	1.1056793711561033
0.23645219062500059	0.7599545466856397	1.0250103106962853	1.1137712989498085
0.23018939062499996	0.74876603670503	1.025430209393567	1.127381547257117
0.22383886874999995	0.738072150353312	1.019769205237017	1.1424169158313995
0.2173993906249998	0.7295447777323557	1.0080623225531922	1.154851522282847
0.21086971874999982	0.7235267523283898	0.9910672118582287	1.163355319773531
0.20424858125000028	0.7192654792499152	0.9700953312430877	1.1694692680226966
0.1975346999999993	0.7159886478682117	0.9473080455519498	1.1739515215108782
0.19072677203125016	0.7139067118084962	0.9244577650062028	1.172383263548919
0.18382349062500009	0.7130470783841822	0.900869161032269	1.1571021844770906
0.1768235124999999	0.7123562823620972	0.8754197298229974	1.129419797264684
0.1697254874999997	0.7118487236974904	0.8505798964053342	1.1007058247663213
0.16252803125000032	0.7132271323325375	0.8314518815136629	1.0843425973423986
0.15522976562500024	0.7164701681489719	0.8198971139716764	1.0851287714467255
0.14782927187500008	0.7184916224984648	0.8087962445084108	1.086698683045694
0.14032511875000012	0.7182120105319918	0.7902731097157514	1.0768536086967155
0.13271585312499953	0.7164273506708544	0.765064376092053	1.0602152842255064
0.12500000000000008	0.7137198352327188	0.7383363834021234	1.045289233679228
0.11805555499999976	0.7095835587562164	0.7123336334766395	1.0329363653756216
0.1111111112499997	0.7037379324770292	0.6890861594804418	1.0194369806583572
0.1041666662500002	0.6960678075631547	0.6691100511478084	1.0010191041775451
0.09722222250000022	0.6872959121530935	0.6566109717627513	0.9767048728008104
0.09027777749999989	0.6787557207586717	0.6526064078282244	0.9493583902995252
0.0833333337499999	0.6715850921173689	0.6538787760027203	0.921905936249506
0.07638888875000027	0.6661573764263534	0.6566567146395856	0.8950556037550165
0.06944444500000004	0.6624259968819676	0.6589328376285408	0.8688989293348933
0.06250000000000004	0.6604746452273293	0.6603895966726295	0.844133620947073
0.05555555499999981	0.6605840615473056	0.6617182036849307	0.8217019957779274
0.04861111125000011	0.6630623405219231	0.6635658117398662	0.802689289063184
0.041666666249999915	0.6679364533588692	0.6666644560994229	0.7891872825116397
0.03472222250000002	0.6745713692153483	0.6717743649086412	0.7838401772009715
0.027777777499999906	0.6817718056509997	0.6784329050159719	0.786767318038904
0.02083333374999994	0.6883560834272356	0.6848389566428417	0.7952311986206658
0.013888888749999953	0.69342653119436	0.6896224930386949	0.8060920087557356
0.006944446656250006	0.6962953324198365	0.692365743410698	0.8164678249723383
0.0	0.6863596734319882	0.66500629502849	0.8167676036507906
