0.5000000000000003	0.0021606177009581284	0.09876817325853995	0.2140936461071297
0.49742875625000194	0.0020131388375499225	0.09599303735426398	0.21408590850256343
0.49482149687500077	0.015117857176156569	0.2518511906628601	0.6438070504267065
0.49217771875000144	0.03733452854694965	0.37937399838471786	1.0680307839672183
0.4894969062499981	0.06597159466372074	0.4829001575314305	1.464937080476231
0.48677854687499983	0.0984685069550293	0.5658194580641593	1.8131879093985512
0.48402210937500056	0.13275418009885084	0.6333753802444083	2.101240717922075
0.48122705937499843	0.16738423206321498	0.691572494211578	2.324987841063752
0.47839286562500044	0.20163907686184604	0.7421097786892132	2.482519049055473
0.4755189656249995	0.23545397344126745	0.7817886431756635	2.575817680508515
0.47260480937499916	0.26879252566747336	0.8075274231869584	2.6127026913359668
0.46964983750000083	0.30123464844020703	0.8212682405595139	2.6055235363165536
0.4666534749999997	0.3323172286122717	0.8291821108524005	2.5687129812685603
0.4636151437500017	0.3618772852658559	0.8352810399971503	2.514467453734516
0.460534253124999	0.3904430905416657	0.8380815658145827	2.450701192724334
0.45741020937500093	0.4194116678706485	0.8354475397862933	2.384767625905406
0.4542424000000002	0.4500268358859914	0.8298409505688845	2.3251390387103394
0.45103022812499977	0.4821634310068009	0.8256688568008543	2.2753720447988393
0.4477730562500009	0.514782381927812	0.8237827615808941	2.231384383958871
0.44447025937500095	0.5473362234615919	0.8215875460486034	2.18809153429256
0.441121206249999	0.5796731818098859	0.8169416849425616	2.1452316331706642
0.43772524062499985	0.6113368326783113	0.8104546416918365	2.1051892051000753
0.43428169999999944	0.6414149768342096	0.8045290669199626	2.0682496463051296
0.43078993437500107	0.6688655336626372	0.8011982027256208	2.0331993873972225
0.42724925312500034	0.6928864119014445	0.8012635296557303	2.0008911994400687
0.42365897499999994	0.713003959411646	0.8048170374054329	1.9740046654253884
0.4200184156249997	0.7291543519803202	0.8120882293985137	1.954167840502736
0.4163268562499999	0.7418270586337762	0.8237354423277555	1.9406781663522554
0.4125835906249998	0.7520312428494325	0.8396996966564702	1.9304675534947238
0.408787890625	0.7610672966157312	0.8576767552849978	1.9196566777396078
0.404939028125	0.7700283301164327	0.8737382795609051	1.9063635188878396
0.4010362531249997	0.7791121979830496	0.8850945234460488	1.8909883256068158
0.3970788062500005	0.787887234289927	0.8920274824712316	1.8740728199525256
0.39306592812500063	0.7957690913017625	0.8965096969530512	1.854910878798276
0.38899684687499964	0.8025442992320487	0.899966979988373	1.8323133662594364
0.3848707656249999	0.8084731286766677	0.9030041056444377	1.8064219230122482
0.3806868874999992	0.813815704886079	0.9061446834479524	1.7795293396028533
0.37644440312499916	0.818462010231683	0.9104568822033539	1.755000362375754
0.3721424968749993	0.8219295451490259	0.9174927876788502	1.7346993233377468
0.36778033749999917	0.82371211736522	0.9277660920367788	1.7163806925703067
0.36335707500000036	0.8233983445578987	0.9397273237213509	1.6937462586834755
0.3588718499999999	0.8206810484564387	0.9520571448776097	1.6614753945062746
0.3543238000000003	0.8155317267707766	0.9656763120670547	1.6213027810308691
0.34971204687499996	0.8085599158854876	0.9824405849432943	1.5807112316278198
0.34503569687500074	0.8006876025113612	1.0027895539780431	1.5459249474687002
0.3402938437500005	0.7922582614802415	1.0245571742451254	1.5176418934482048
0.33548557187500094	0.7831188564644669	1.0435007200274597	1.4922529927658856
0.33060994687499945	0.773532034548381	1.055289359495573	1.465194574822355
0.32566603124999943	0.7646383583715409	1.0575657986846971	1.433419389744779
0.3206528687500002	0.7580858150900739	1.0504472219131475	1.396628806210565
0.31556948125000117	0.7550110167968446	1.035553015916418	1.3568134850534395
0.3104148874999999	0.7554226171825081	1.0147430568246365	1.3162640469654379
0.3051880968750001	0.7585449306686765	0.9898020352874659	1.276696973905293
0.29988809062500027	0.7630045137924422	0.962552089932608	1.2405566289596377
0.2945138468749994	0.7673827698159144	0.9348680787498842	1.2121349728244355
0.28906433437500006	0.7710725944125458	0.9086502646089916	1.1954866802093556
0.2835384781249999	0.7744347275289998	0.8850950662526463	1.1899925724439304
0.27793522187500025	0.7779764058559269	0.8638810046807782	1.1893514447429983
0.2722534843750002	0.7818538003629143	0.844333886661375	1.1865629785653178
0.26649215624999945	0.7864048261652076	0.8277795375165788	1.1793717895473528
0.26065013437499934	0.7916780891211476	0.8168921060415854	1.1704832120640034
0.2547262812499995	0.7971759703996696	0.8119776302872844	1.1623151117934833
0.24871944687499994	0.8019362217296666	0.8108371097210961	1.1521251940192492
0.24262847812499932	0.8056064711855652	0.8116864361961629	1.133869956280142
0.23645219062500059	0.8092344708025965	0.8138970834623198	1.1075205413135787
0.23018939062499996	0.8143362373842061	0.8170462411442482	1.082509756845391
0.22383886874999995	0.8218609827054204	0.8207004843147502	1.0650176060331795
0.2173993906249998	0.8313216803808967	0.8256339188774859	1.0532003029133155
0.21086971874999982	0.8406081287889732	0.8331181967189952	1.0446430971692913
0.20424858125000028	0.8469893041278149	0.8420313103908025	1.038305375025447
0.1975346999999993	0.8485225056002091	0.8497035173134093	1.0323357691111588
0.19072677203125016	0.8448045675688436	0.8557369878938359	1.0239303954644876
0.18382349062500009	0.8367358974917888	0.8612342586063692	1.0122592672689301
0.1768235124999999	0.8265289068989131	0.8651078149240756	1.000125791149538
0.1697254874999997	0.8171099033285155	0.8648052552400226	0.9901744501136709
0.16252803125000032	0.810194476918261	0.8588564245111977	0.9808823828082075
0.15522976562500024	0.8056690859304405	0.8480256987346646	0.9702376418524754
0.14782927187500008	0.8025428306010652	0.8355773189496138	0.9602087840068236
0.14032511875000012	0.7998872054044927	0.8245846540339344	0.9521257950014108
0.13271585312499953	0.7967829768788004	0.8142585275426865	0.9433786060780454
0.12500000000000008	0.7929030480516218	0.8020883363556633	0.9329553694226587
0.11805555499999976	0.7880221568374756	0.7880487123110039	0.9219426598927719
0.1111111112499997	0.7820006487664968	0.7750821238006183	0.9113543125553508
0.1041666662500002	0.7740500947030569	0.7634476828230536	0.9003675367906723
0.09722222250000022	0.7644118061987217	0.7533551275715747	0.8907356135437429
0.09027777749999989	0.7538147192850851	0.7443256558397473	0.8827463252987143
0.0833333337499999	0.7433457057174512	0.7358386502098764	0.873564137542436
0.07638888875000027	0.7337165696115688	0.7272057064904491	0.8607871195518151
0.06944444500000004	0.7250097705472258	0.7179358639020771	0.8446190466468831
0.06250000000000004	0.7168757363685826	0.7077663077042158	0.8257063028937656
0.05555555499999981	0.7093875449678363	0.6966471016803978	0.8042258353582682
0.04861111125000011	0.7034008810897394	0.684819853103292	0.7822756829189818
0.041666666249999915	0.6999649878397691	0.673507860806836	0.7642197246269152
0.03472222250000002	0.6993031012810909	0.666183132775756	0.7526115993974709
0.027777777499999906	0.700384820730503	0.6665464298010686	0.746324444582648
0.02083333374999994	0.7016579116460244	0.6747580737413756	0.743732615489458
0.013888888749999953	0.7021964306765147	0.6873466703502344	0.7436116321321886
0.006944446656250006	0.7019592784255078	0.6994680947517233	0.7443935433451736
0.0	0.6485565630335459	0.7497999398516348	0.7388303046060674
