0.5000000000000003	0.0013558190788425506	0.07659014390614707	0.1662392796529625
0.49742875625000194	0.0014049937321315147	0.08508697431450422	0.16174591648441103
0.49482149687500077	0.010734441214847061	0.22617362920564485	0.4834613322800656
0.49217771875000144	0.027040683639484503	0.3445797215539772	0.8031880621684436
0.4894969062499981	0.04861579364652653	0.4435841583348837	1.1115712094680898
0.48677854687499983	0.07397961747621647	0.5264120580125536	1.3947938540431988
0.48402210937500056	0.1020634412568794	0.5965453785484136	1.6407437327286998
0.48122705937499843	0.13216043389653637	0.6566544943951899	1.8462272302031992
0.47839286562500044	0.1638387949836829	0.7081689649231826	2.0167920494417206
0.4755189656249995	0.19678233951508184	0.751517372389238	2.158465692606762
0.47260480937499916	0.23093674632796307	0.7867201882500581	2.271746024748664
0.46964983750000083	0.26664163378994354	0.8149423501262577	2.355021706944576
0.4666534749999997	0.30412101445109097	0.8390764872449085	2.411074718150531
0.4636151437500017	0.34274323161196735	0.8628469438357206	2.44702887883332
0.460534253124999	0.38150329369446273	0.8890525390368167	2.4692723689980567
0.45741020937500093	0.42008972308266934	0.9172709739583849	2.480759833899626
0.4542424000000002	0.4588249594412158	0.9442233041030226	2.482806900143325
0.45103022812499977	0.4975552730811896	0.9668847239210605	2.4762966985353776
0.4477730562500009	0.5351117536590889	0.9828277131868608	2.4603964002253673
0.44447025937500095	0.5699678943088392	0.9884008596465608	2.432774919578547
0.441121206249999	0.6008876310818292	0.9815582809999173	2.393599544576488
0.43772524062499985	0.6274426487119952	0.9673019009789784	2.3481490330509343
0.43428169999999944	0.6496711191381261	0.9554047395650902	2.3035940614081953
0.43078993437500107	0.6676371009079924	0.9507718192502476	2.263338271637785
0.42724925312500034	0.6814002763660476	0.9497627857793386	2.225121370656755
0.42365897499999994	0.691421241763497	0.9465799414739703	2.1847611256190707
0.4200184156249997	0.6992646934526027	0.9396034975711275	2.142171515624938
0.4163268562499999	0.7067784686404818	0.9318764410446184	2.101080579801591
0.4125835906249998	0.7145129952891467	0.9273524173104457	2.060015635746393
0.408787890625	0.7219427770450413	0.9271574121496862	2.007530006624736
0.404939028125	0.7285038588706778	0.9306314032852099	1.9345990696473394
0.4010362531249997	0.7340465398704745	0.9370465966967592	1.848341570023589
0.3970788062500005	0.7389549981820358	0.943517708139049	1.7648012805699487
0.39306592812500063	0.7441334851415864	0.9459869198733055	1.6949732858362438
0.38899684687499964	0.7500875391592458	0.942436672917419	1.6429960710696347
0.3848707656249999	0.7564340031063463	0.9322103286759175	1.6056857104597002
0.3806868874999992	0.7626077656137318	0.9166844824658402	1.57274521617527
0.37644440312499916	0.7685698830358944	0.900371503375577	1.53593158596229
0.3721424968749993	0.7748996380299984	0.8877021957915016	1.495066867685269
0.36778033749999917	0.7818724622024168	0.8804002476416609	1.4540793871161268
0.36335707500000036	0.7884449587391856	0.878004654053558	1.4153123511551486
0.3588718499999999	0.79203008083418	0.8785497715929621	1.3764092645847543
0.3543238000000003	0.7912111832455306	0.8776754066416561	1.3332039360679375
0.34971204687499996	0.787348715916963	0.8712862929189383	1.2897209355895685
0.34503569687500074	0.7817269732349108	0.8620732865110693	1.2573607832001272
0.3402938437500005	0.7753094056947221	0.8533268602553001	1.2398706343651509
0.33548557187500094	0.7695031974914076	0.8455718921516662	1.2297839783377829
0.33060994687499945	0.7650961636938265	0.8406437355385442	1.218417186891818
0.32566603124999943	0.7623810138097947	0.8386918937300355	1.2001210610158897
0.3206528687500002	0.7617261837772895	0.8378285941913644	1.1723822009718812
0.31556948125000117	0.7633240466197495	0.8376689397075675	1.1413174132733037
0.3104148874999999	0.7664829744973704	0.8391296976544905	1.124569340519238
0.3051880968750001	0.7695864293170722	0.843045606959704	1.1327353632960635
0.29988809062500027	0.7710944807673709	0.8506933397155767	1.1559306509906222
0.2945138468749994	0.7702532862779008	0.8625419992152842	1.178981997506417
0.28906433437500006	0.7668425834228305	0.8766458098967717	1.1950918636057601
0.2835384781249999	0.7607699880667692	0.8899048070572482	1.2058650341132968
0.27793522187500025	0.752500827354251	0.9003568455188554	1.2162579919468082
0.2722534843750002	0.7438014423380397	0.9074658109133473	1.2303899266494343
0.26649215624999945	0.7369653187428278	0.9122606691757358	1.2496200444982686
0.26065013437499934	0.7331204360737781	0.9165482382496846	1.2719629450561667
0.2547262812499995	0.7319922074558273	0.9191155503356507	1.2921092638943545
0.24871944687499994	0.7328547044150904	0.9146161932974024	1.3030593909290846
0.24262847812499932	0.735186219445006	0.8987260785749771	1.3009813528572631
0.23645219062500059	0.7387184941008672	0.8723084519114134	1.286423055441656
0.23018939062499996	0.7430170111504565	0.840248576746355	1.259474001978351
0.22383886874999995	0.7469422767544174	0.8099207186991088	1.2194519486549629
0.2173993906249998	0.7488136075120883	0.7880111063100648	1.1685897313619615
0.21086971874999982	0.7471454829883298	0.775088768235713	1.1138118692392165
0.20424858125000028	0.7417511653838389	0.7657286922585514	1.0633560887279956
0.1975346999999993	0.7342726519003152	0.7564904944272797	1.021100112272641
0.19072677203125016	0.7261680289294169	0.750363209237183	0.9856777025962021
0.18382349062500009	0.7170893643595734	0.7509857932528139	0.953206441937563
0.1768235124999999	0.7063356262381939	0.7574060926914541	0.9203344563159792
0.1697254874999997	0.6941606057673435	0.7662444246642629	0.8858875216371935
0.16252803125000032	0.6814131918020901	0.7723905355970394	0.8499569302264348
0.15522976562500024	0.6685209864733519	0.7687498358729339	0.8135796224412555
0.14782927187500008	0.6555007401975923	0.7529017467335821	0.7815667706382228
0.14032511875000012	0.642700698661004	0.7309390286481755	0.7614429129531799
0.13271585312499953	0.6306868393228221	0.7095230468632511	0.7534115218690516
0.12500000000000008	0.6205408011293414	0.6902827764389876	0.7479291623431219
0.11805555499999976	0.612255715218517	0.6712793053920215	0.7354735075298977
0.1111111112499997	0.6053347389123208	0.653145494548186	0.7181671557058602
0.1041666662500002	0.5994580667503471	0.6361969934734464	0.7009981708559877
0.09722222250000022	0.5948406259796986	0.6227704068375463	0.6877471509989029
0.09027777749999989	0.5919419610807414	0.6127792670157862	0.677966421154014
0.0833333337499999	0.5907036553060607	0.604529772531193	0.66912339499374
0.07638888875000027	0.5904679435371879	0.5961681419722159	0.6584160596579963
0.06944444500000004	0.5902277863028634	0.586773640077345	0.6441979607368223
0.06250000000000004	0.5891199866980625	0.5766371892605066	0.6265261193669575
0.05555555499999981	0.5867217814264839	0.5666404883250198	0.6066009323141855
0.04861111125000011	0.5830528632855578	0.5572843121015891	0.5855003333063502
0.041666666249999915	0.5784644592454818	0.5487173014689353	0.5633613598842566
0.03472222250000002	0.5734080750927233	0.5414622648808374	0.5403391615929143
0.027777777499999906	0.5682354757571075	0.5361468034600233	0.5176653130616025
0.02083333374999994	0.5632186527649669	0.5323782058244362	0.497711519811318
0.013888888749999953	0.5586529277082383	0.5290759636467472	0.4831938994179366
0.006944446656250006	0.5542732321246504	0.5264165229927046	0.4747966301093373
0.0	0.5309055438305539	0.5266929946935061	0.4770025606751637
