0.5000000000000003	0.0015938396529932653	0.07311207356410546	0.20642773440880643
0.49742875625000194	0.0014652138717589434	0.07468567516810673	0.1820972991619271
0.49482149687500077	0.01227065216129157	0.19246696920517312	0.549989142403323
0.49217771875000144	0.03125885681036965	0.2904410718558216	0.9237003327257135
0.4894969062499981	0.056604269629641456	0.3752736256453943	1.2933937157980986
0.48677854687499983	0.08676174188266678	0.45058025109610317	1.6449109480437585
0.48402210937500056	0.12005549534040154	0.517487469733384	1.9647341685134287
0.48122705937499843	0.15457899309114648	0.5774691276560385	2.242333627570058
0.47839286562500044	0.188838681269245	0.6340754779805357	2.4706719914802933
0.4755189656249995	0.22218985791884555	0.6903549660979055	2.64699208995532
0.47260480937499916	0.25445764969920537	0.7451456061169545	2.7726307258663034
0.46964983750000083	0.2854174094627438	0.7938622534375469	2.851931328558614
0.4666534749999997	0.3148216430055609	0.833028311210295	2.8922957396176256
0.4636151437500017	0.34273377503878855	0.8625587244890892	2.9040654540457145
0.460534253124999	0.3696585736249055	0.8841243497004968	2.897569868418711
0.45741020937500093	0.3960680761382388	0.898833062754367	2.878601574182933
0.4542424000000002	0.42229389872145934	0.9072994235485282	2.8468340170713615
0.45103022812499977	0.44882339413811734	0.9120792197088701	2.7986774035069066
0.4477730562500009	0.47663015131734393	0.918416731569514	2.7325304569854927
0.44447025937500095	0.5066511620392476	0.9306568547801253	2.6528677680869013
0.441121206249999	0.5385543920542613	0.9482170053280781	2.5689062346621525
0.43772524062499985	0.5711357747908689	0.9672822844853834	2.4896705195679765
0.43428169999999944	0.6039891099987843	0.9868036595582433	2.4194025029024377
0.43078993437500107	0.637586394270877	1.0077754018351903	2.358181071980205
0.42724925312500034	0.6721012711727855	1.0280799043667965	2.306357306936222
0.42365897499999994	0.707244220374575	1.0421419716798894	2.2636346729162695
0.4200184156249997	0.7423605779821286	1.0433561095581538	2.223582468383411
0.4163268562499999	0.7768928125216221	1.0280392746610756	2.1758305523711226
0.4125835906249998	0.8106162282832178	1.0025784586130555	2.117433540073987
0.408787890625	0.8432346930346772	0.982160516039529	2.0581266659920274
0.404939028125	0.8743446727829338	0.9775731542341766	2.009953950933007
0.4010362531249997	0.9034548141932799	0.9899832977885712	1.9736460955616482
0.3970788062500005	0.930279549469944	1.0123363919466402	1.9378352617861567
0.39306592812500063	0.9543695416014258	1.0367958395277845	1.8903574058365722
0.38899684687499964	0.9751145241816113	1.059388464839928	1.8274039565109288
0.3848707656249999	0.9921688136140913	1.0765322791202416	1.754802858985994
0.3806868874999992	1.0057611439534049	1.086094378422456	1.6860217427915596
0.37644440312499916	1.016256402860315	1.089859809075503	1.634048220463992
0.3721424968749993	1.0238549014559548	1.0936182465954223	1.601288731279642
0.36778033749999917	1.0286712572694037	1.1025352908869839	1.5802632227239106
0.36335707500000036	1.0310018740640505	1.1147129738397883	1.5628435023061986
0.3588718499999999	1.0313506210917562	1.121030443269295	1.5442764773781248
0.3543238000000003	1.0301596071832761	1.1163627415483501	1.5231437465286954
0.34971204687499996	1.0276624798548688	1.1078991705079706	1.5022878229554577
0.34503569687500074	1.0244605414341532	1.1037684951501578	1.4879316162885692
0.3402938437500005	1.0208921453901898	1.1038916189555534	1.483434829445041
0.33548557187500094	1.0162373360325154	1.1065793327715185	1.482740484669092
0.33060994687499945	1.0100915266633885	1.1130231657563454	1.4770160917395447
0.32566603124999943	1.0033059873904457	1.1249893233081028	1.4663299401752359
0.3206528687500002	0.9975400356826601	1.139053109549687	1.4586055620743112
0.31556948125000117	0.9947176827145179	1.149487771410261	1.4624645503371667
0.3104148874999999	0.9945650098697792	1.1544158089464942	1.4823227547674214
0.3051880968750001	0.9951108456729149	1.1518181481434797	1.5096103091319855
0.29988809062500027	0.9968910589512628	1.1391837122202266	1.527028685430644
0.2945138468749994	1.0019988409569993	1.1199870400907654	1.534027440775815
0.28906433437500006	1.0087369310620107	1.10089223306688	1.5392899242777833
0.2835384781249999	1.0136042296483458	1.0837786224644619	1.5458743601810971
0.27793522187500025	1.0149678642271445	1.0683803071950806	1.5564019625975818
0.2722534843750002	1.012566961906138	1.056138497582575	1.5704538048221914
0.26649215624999945	1.0063105716122944	1.0464838098498468	1.57875083722147
0.26065013437499934	0.9972805047590126	1.0348077787512	1.571428123989202
0.2547262812499995	0.9882931869372583	1.0187848740296954	1.5504540767037855
0.24871944687499994	0.9823864863004044	1.0023054461085104	1.5238908703139378
0.24262847812499932	0.9806010094794416	0.9877908856018983	1.4917852542261272
0.23645219062500059	0.9811004813258495	0.9724058193384643	1.4561464335227168
0.23018939062499996	0.9810697151404475	0.9570869268135851	1.425634932098325
0.22383886874999995	0.9793968769184536	0.9489560532627385	1.399472997550425
0.2173993906249998	0.9742896413057343	0.9476043698182632	1.3651485429706958
0.21086971874999982	0.9635762814444025	0.9491809086583665	1.317873262763455
0.20424858125000028	0.9484237897855963	0.9528245198613643	1.2667387514668456
0.1975346999999993	0.9308788041379141	0.955371874974754	1.219693597305072
0.19072677203125016	0.9119367666524217	0.950984049640509	1.1796666061276335
0.18382349062500009	0.8920567843106051	0.9346768900626116	1.1468507017429248
0.1768235124999999	0.8703279086282533	0.9047669336435628	1.1219542955601458
0.1697254874999997	0.8463861610475412	0.8651121631243964	1.1018876743048143
0.16252803125000032	0.8228245608797242	0.8318388512791794	1.0794361080618486
0.15522976562500024	0.8039500396997583	0.8197690194885614	1.0542529742734623
0.14782927187500008	0.792786364028757	0.8230072948627751	1.0330108632776906
0.14032511875000012	0.7883356537536704	0.8240082537559392	1.0155300029403218
0.13271585312499953	0.7868958851109844	0.8170110230018561	0.9949964330645378
0.12500000000000008	0.7852448716379374	0.8120579783844325	0.9708527288454609
0.11805555499999976	0.7812583340602085	0.8094584892449606	0.9491543494755084
0.1111111112499997	0.7774072543272359	0.8035492775603117	0.933523950603579
0.1041666662500002	0.775546748833891	0.7917320973243469	0.9186301444492067
0.09722222250000022	0.7761960121637718	0.7764291621954107	0.8995613311974852
0.09027777749999989	0.7787620646256338	0.7596731335997604	0.8750040366601639
0.0833333337499999	0.7823127258410266	0.7413938812430668	0.8474895977862156
0.07638888875000027	0.785955885240053	0.7223295793656312	0.8209980622822168
0.06944444500000004	0.7886871417913814	0.706101746629744	0.7975275432510829
0.06250000000000004	0.7896507641841937	0.696148347278016	0.7767486879397446
0.05555555499999981	0.7888126038001984	0.693091174725317	0.7596254712536717
0.04861111125000011	0.7865428165560968	0.696202416235965	0.7474983616455645
0.041666666249999915	0.782828820479297	0.7030661472918407	0.7373966049888697
0.03472222250000002	0.7774574480377381	0.7108193449053947	0.7234440570095616
0.027777777499999906	0.7706342566670069	0.7195816756751231	0.7013497890451094
0.02083333374999994	0.7633415977380739	0.7311618870024568	0.6714274561902525
0.013888888749999953	0.7570242973426238	0.7456522452718665	0.6390417812336
0.006944446656250006	0.753113023079473	0.7594709465629944	0.6114702983049021
0.0	0.9103719088258301	0.5514755315525883	0.5732376407495285
