0.5000000000000003	0.0019707521000744397	0.09374623749393016	0.14959016892902607
0.49742875625000194	0.001874876949093249	0.1058970774660507	0.15265857807558456
0.49482149687500077	0.015654823439918492	0.267516544801779	0.4629082334601627
0.49217771875000144	0.040781934825105094	0.3905685497696822	0.7867225441759262
0.4894969062499981	0.07429922466821022	0.4839075090304836	1.1188930987626537
0.48677854687499983	0.11249515112956342	0.5624349571231908	1.4423171009221996
0.48402210937500056	0.15252872265268932	0.6350960946924363	1.734803985658118
0.48122705937499843	0.1931009967268944	0.698384126009308	1.9826533681094558
0.47839286562500044	0.2331979208929273	0.7554797993460655	2.1835225826369364
0.4755189656249995	0.2711803301250802	0.8160091435713347	2.33732443667493
0.47260480937499916	0.3057477265464462	0.8827049646924928	2.4446852432581445
0.46964983750000083	0.3371685186821364	0.9468151185269762	2.51110282450197
0.4666534749999997	0.3667363997959254	0.9950629188283259	2.5454112465352883
0.4636151437500017	0.3952013401891892	1.021033937789449	2.555143741728947
0.460534253124999	0.42265784669415596	1.0275788518515965	2.5460239326405416
0.45741020937500093	0.4492650349195045	1.0216763588232223	2.5219920762162764
0.4542424000000002	0.4755166625056425	1.0096407498192383	2.484176831152448
0.45103022812499977	0.5021693307956039	0.995201963268952	2.4346844032754213
0.4477730562500009	0.5296345265143971	0.9806353535688239	2.3810801455540997
0.44447025937500095	0.5570373717624498	0.9684745897841649	2.3316894357355724
0.441121206249999	0.5825925911617789	0.9604761178236582	2.287056142951304
0.43772524062499985	0.604883607371667	0.9564250302741021	2.2415218684406915
0.43428169999999944	0.6236476359656395	0.9563123409270702	2.193495072342075
0.43078993437500107	0.6394795674048067	0.9614298499940225	2.1481445682491076
0.42724925312500034	0.653287758651659	0.970413693986175	2.1102858439793635
0.42365897499999994	0.6659755865242014	0.9769816256933302	2.0805253732286006
0.4200184156249997	0.6784040826470654	0.974380818119526	2.0567716169560315
0.4163268562499999	0.691516669822842	0.9603117804013068	2.0354504278845256
0.4125835906249998	0.7061361776663797	0.9374808297786632	2.012122594075564
0.408787890625	0.7225546811675294	0.9119173629353806	1.9845359399292481
0.404939028125	0.7407145387741441	0.8904016574345831	1.956424334487166
0.4010362531249997	0.7601160746716522	0.8766902957492546	1.9335149157110139
0.3970788062500005	0.7796742483953963	0.8706704053082862	1.9170572236062715
0.39306592812500063	0.7976574096836617	0.8711737631440568	1.9069744728067575
0.38899684687499964	0.8120307098524349	0.8771992443704922	1.904130960560794
0.3848707656249999	0.8216509593467203	0.8879499019383162	1.9038135579733124
0.3806868874999992	0.8276667946172311	0.9022270699917981	1.8929706127849308
0.37644440312499916	0.8331983717458669	0.915908804635261	1.8609292944640172
0.3721424968749993	0.8399040660980224	0.9241401584679434	1.8133084979267953
0.36778033749999917	0.8464357059218641	0.9289856314732938	1.7652217800453436
0.36335707500000036	0.8513377089045452	0.9348577321550191	1.7185453992039306
0.3588718499999999	0.8544787737083591	0.9420729234735318	1.6675016359547616
0.3543238000000003	0.8559073049359311	0.9495156149754682	1.6154142577241204
0.34971204687499996	0.8563866254612841	0.9563983945525996	1.5703327373086493
0.34503569687500074	0.8573370884255062	0.9633463934412344	1.537654485667973
0.3402938437500005	0.8595868715636307	0.9707604042341629	1.5189500430299685
0.33548557187500094	0.8631366084994913	0.9764493568424103	1.5109274097195333
0.33060994687499945	0.8674236805509954	0.9772091051949399	1.5067348241270966
0.32566603124999943	0.8715661510095482	0.9714762728836468	1.500366264937277
0.3206528687500002	0.8749069304105581	0.9600145166238793	1.4894186540956391
0.31556948125000117	0.8774584280104663	0.944938047325861	1.474318069756951
0.3104148874999999	0.8795974843500229	0.9289144599174967	1.4567308843195768
0.3051880968750001	0.8813834567062886	0.9151260385944818	1.4383445325520285
0.29988809062500027	0.8824142164839524	0.9070966193521662	1.4202126872264278
0.2945138468749994	0.8821327009122123	0.9065553804613043	1.4032392957610829
0.28906433437500006	0.8794059395576058	0.9113708670502884	1.3864809520370673
0.2835384781249999	0.8727265305300237	0.9162860054336072	1.3650099163626392
0.27793522187500025	0.861272970458911	0.9157959000159464	1.336201083482048
0.2722534843750002	0.8454037703027344	0.9086066903989612	1.307362993485925
0.26649215624999945	0.8266599096331092	0.8988458564761218	1.2879421249080019
0.26065013437499934	0.8068220285844071	0.8896744825544338	1.2792161913685312
0.2547262812499995	0.7869935753204418	0.8805465201330681	1.2793135003386256
0.24871944687499994	0.7679104288671351	0.8689502879807193	1.2860112054151194
0.24262847812499932	0.7508427606072943	0.8530929543999561	1.2937937823002439
0.23645219062500059	0.7376566220957945	0.8352056842771838	1.2916592014737223
0.23018939062499996	0.7297556934124003	0.8208939825244845	1.2703202154051012
0.22383886874999995	0.7270537716472727	0.8135664249994164	1.2311204512087388
0.2173993906249998	0.7287928956549599	0.811007598691296	1.1851681886398606
0.21086971874999982	0.7333229239033315	0.8102678378681345	1.148271000372866
0.20424858125000028	0.7397938080087206	0.8084396127487381	1.1257553232454829
0.1975346999999993	0.7488089129398917	0.8019283775551161	1.1091488788256239
0.19072677203125016	0.7601318442674301	0.7912575571338826	1.0898248070053649
0.18382349062500009	0.7714698001984999	0.7802291872659013	1.0632858047769682
0.1768235124999999	0.7788955057526017	0.7709876880985679	1.0316189292348141
0.1697254874999997	0.7796743234846817	0.7662067444767486	1.0012186814972193
0.16252803125000032	0.7752207190244689	0.7691215828026599	0.977132280341532
0.15522976562500024	0.7689580324056023	0.7767075787917807	0.9596479196256456
0.14782927187500008	0.7622852617111804	0.7815071193373541	0.9438024980221278
0.14032511875000012	0.7555987847015517	0.7787327046577434	0.9268745904397284
0.13271585312499953	0.7485250674464371	0.7707618842046691	0.9117241790529218
0.12500000000000008	0.7410588650220736	0.7619577153164063	0.9006354296408121
0.11805555499999976	0.7326492165835129	0.7534525676969267	0.8943417574311581
0.1111111112499997	0.7239490157360364	0.7461751379191067	0.8900504497762945
0.1041666662500002	0.7153470952477703	0.7393439570914319	0.885079044654193
0.09722222250000022	0.7070350682774221	0.7325662945881799	0.8776673343175575
0.09027777749999989	0.6997836417367012	0.7253376122098337	0.8665832949034761
0.0833333337499999	0.6934434711366715	0.7172646308854235	0.8515756533623017
0.07638888875000027	0.6873905005599823	0.7079361661577269	0.8342926708991886
0.06944444500000004	0.6809920139251018	0.6973197357927235	0.8173530877737168
0.06250000000000004	0.6742695556227549	0.6857246377297208	0.8016028340736924
0.05555555499999981	0.6677499483652624	0.673209886800771	0.7859250016022415
0.04861111125000011	0.6621485437648025	0.6604069075590934	0.7696026071766705
0.041666666249999915	0.6578790803653671	0.6492348331882579	0.7531102467217388
0.03472222250000002	0.654961980542947	0.6412585848189672	0.736597302882782
0.027777777499999906	0.6532356910195213	0.6363146897929164	0.7194180897646627
0.02083333374999994	0.6523758915599065	0.6339331644305204	0.7017069869118361
0.013888888749999953	0.6518976620633425	0.6343809580614682	0.6850924642570579
0.006944446656250006	0.6511188729316141	0.6375537804592775	0.6720703714134354
0.0	0.6808905759440456	0.6040598870662562	0.6677459065725676
