0.5000000000000003	0.0027749083424623944	0.10053254538854405	0.19241951241338223
0.49742875625000194	0.0023358841729947976	0.13039546482023295	0.21028947172189685
0.49482149687500077	0.018049280144012046	0.3317756950313956	0.6325882581746459
0.49217771875000144	0.04552287742171366	0.4899377425242899	1.0537050190181498
0.4894969062499981	0.08292083428539233	0.6172201379212126	1.458463378646676
0.48677854687499983	0.12727098009826068	0.7239718456106081	1.839031859745333
0.48402210937500056	0.1735026489893835	0.8087645356343182	2.1892002820162526
0.48122705937499843	0.21731456072943217	0.8675300778708659	2.49129726980948
0.47839286562500044	0.257845931011644	0.9036725448057544	2.731777255343343
0.4755189656249995	0.2969075576803628	0.9229832575109871	2.913951654160034
0.47260480937499916	0.3361373578753508	0.9327390777127477	3.045696088794083
0.46964983750000083	0.3758789680078065	0.9433192306954818	3.1282206704902573
0.4666534749999997	0.4162390985449908	0.9619842604372296	3.161238807853376
0.4636151437500017	0.4576996438548489	0.9883872387490744	3.1516403591765725
0.460534253124999	0.4999923642068766	1.0191428867895849	3.1119214820125762
0.45741020937500093	0.5419023756754933	1.050170551316595	3.052945020755529
0.4542424000000002	0.5826277848046495	1.0756883916526163	2.982368474119615
0.45103022812499977	0.6223207119228059	1.0911684643519541	2.908222180617271
0.4477730562500009	0.6613280569636713	1.0980859791047866	2.838824318420488
0.44447025937500095	0.6993357890033481	1.1032882220253388	2.7770054455460933
0.441121206249999	0.7355025909157803	1.112720095861929	2.716809542638527
0.43772524062499985	0.7690131165475756	1.1274786011761753	2.6490155731524485
0.43428169999999944	0.7990656236093875	1.1436894500648114	2.568249943648409
0.43078993437500107	0.8253897540441769	1.1528720017046725	2.474540852318682
0.42724925312500034	0.8483060251636755	1.1455207464322452	2.37219212159416
0.42365897499999994	0.86985852418811	1.123246895398348	2.2687431121926256
0.4200184156249997	0.8914449081378686	1.103257454561262	2.173146254815237
0.4163268562499999	0.9118917942756593	1.0967679883674735	2.092662252417591
0.4125835906249998	0.9298410992702223	1.1007829304303844	2.030411860534082
0.408787890625	0.9445130615306464	1.1088902678169195	1.9831859681082873
0.404939028125	0.9556371712418732	1.1154688024074388	1.9450847713849102
0.4010362531249997	0.9633116410000135	1.1168011648679361	1.9110605939714478
0.3970788062500005	0.9682367297250618	1.1144597731449075	1.8764000676190407
0.39306592812500063	0.9713386737571418	1.1124369903142335	1.836430165313884
0.38899684687499964	0.9736900092741287	1.114098353764479	1.7900813575863346
0.3848707656249999	0.9760314803002044	1.1227862419129522	1.7433511689603496
0.3806868874999992	0.9782799863268536	1.1404094707141146	1.7046681535527348
0.37644440312499916	0.979474105583237	1.1647516567348113	1.6777810157458208
0.3721424968749993	0.9784294564552446	1.1900676172688773	1.6612760788661034
0.36778033749999917	0.9745415000068851	1.2106894708853433	1.65130275836172
0.36335707500000036	0.9679875010174779	1.223585820713257	1.6441663362921268
0.3588718499999999	0.9596387932330659	1.227430748624348	1.6374542988066347
0.3543238000000003	0.9505441413336786	1.2204404985411985	1.6292566091649152
0.34971204687499996	0.9413232725305679	1.2015709356307824	1.616684097396252
0.34503569687500074	0.9317007302046822	1.1733936674579009	1.5956586568310667
0.3402938437500005	0.9206986083698613	1.1447542437461968	1.5648480057872065
0.33548557187500094	0.9076517378466067	1.1272292791439316	1.5294724842984908
0.33060994687499945	0.8937901790525999	1.126042049212402	1.4990888666653426
0.32566603124999943	0.8815389798238256	1.1387988699448492	1.479785047680924
0.3206528687500002	0.8720591622858126	1.1591926648562296	1.4702748773524987
0.31556948125000117	0.8651939286499999	1.1786349894014694	1.463076211956629
0.3104148874999999	0.8608833938962295	1.189175138186615	1.4490019453803027
0.3051880968750001	0.8589668646477289	1.1873359016461993	1.4257436761695352
0.29988809062500027	0.8586629389164963	1.1726131691062065	1.4011588824507561
0.2945138468749994	0.8582966364127894	1.149610597403426	1.386853057406073
0.28906433437500006	0.8579862142412612	1.126646143554716	1.384347968284466
0.2835384781249999	0.8599056547983321	1.1091782177534841	1.3850711345523907
0.27793522187500025	0.8646725021774824	1.1000991810334333	1.3845455351616311
0.2722534843750002	0.870439443763245	1.097881163450368	1.3813803530271542
0.26649215624999945	0.8741509551591229	1.0956928859555053	1.3733910620397056
0.26065013437499934	0.8730710517135547	1.0868402198471776	1.3608283370233365
0.2547262812499995	0.8668009752758722	1.0702819084334345	1.346682789017351
0.24871944687499994	0.8580686921781188	1.048454141708672	1.3285454106981667
0.24262847812499932	0.8504748602207106	1.0230283753587097	1.291528432224138
0.23645219062500059	0.8444920073527838	0.9960830749722436	1.2367606092852748
0.23018939062499996	0.8383163622939233	0.9709199427721367	1.192839060506762
0.22383886874999995	0.8308763589301074	0.950543856678861	1.1657763729368802
0.2173993906249998	0.8218443439972739	0.9330689178935558	1.1494017673645704
0.21086971874999982	0.812277917116069	0.914776267236587	1.1368350202855473
0.20424858125000028	0.8039649181024826	0.8955104191348886	1.1233978388269537
0.1975346999999993	0.7979125710955187	0.877319770430368	1.1082554739109083
0.19072677203125016	0.7942674318403253	0.8616539219271891	1.0938129244782
0.18382349062500009	0.7931883418762578	0.847769589439714	1.082740590927689
0.1768235124999999	0.7949082450312329	0.8335118230820034	1.0739116354792155
0.1697254874999997	0.7992858577520924	0.81900400037777	1.0645849695269032
0.16252803125000032	0.8053526523216451	0.8072184821262315	1.0556194560285475
0.15522976562500024	0.8120963561864254	0.7996552239673581	1.0496982958402452
0.14782927187500008	0.8177895546556512	0.7931097679428653	1.0473449440205382
0.14032511875000012	0.8207746537264985	0.7834199238912308	1.0467047665217777
0.13271585312499953	0.8195145176918976	0.7685501453870869	1.0444208578061303
0.12500000000000008	0.8146919789522573	0.7497040072445007	1.0357711326963248
0.11805555499999976	0.8075622278296049	0.7288562974834185	1.017674450843664
0.1111111112499997	0.7997151981077344	0.7080670857457333	0.9931815429933377
0.1041666662500002	0.7910161922825413	0.6865684042176108	0.9632844335905087
0.09722222250000022	0.7815082947983886	0.6669960123262264	0.9311290525512009
0.09027777749999989	0.7713154959989296	0.6516321357916187	0.9008196632648391
0.0833333337499999	0.7610825093339312	0.642306763078093	0.8736870546320612
0.07638888875000027	0.7516532691944424	0.64049837842284	0.8424140315065077
0.06944444500000004	0.7431115646160988	0.6456673785805624	0.8018290191192492
0.06250000000000004	0.7345953091258229	0.6544572998686911	0.7575254924462038
0.05555555499999981	0.7256831051151837	0.6634795485022966	0.7168407643063951
0.04861111125000011	0.7167850956955623	0.6717496550090739	0.68227830389539
0.041666666249999915	0.7083959786135501	0.6796504920686062	0.6532764186453944
0.03472222250000002	0.7005312462175162	0.6864051697951349	0.6289021935236117
0.027777777499999906	0.6929450835901917	0.6903851679260568	0.6082486836321614
0.02083333374999994	0.6856889023151385	0.6908899794327396	0.5906399735062421
0.013888888749999953	0.6793337554234982	0.6886155163861281	0.5763101042046973
0.006944446656250006	0.6748342426211497	0.684978474423223	0.5661456311696218
0.0	0.712569684465922	0.6469037876258619	0.5623894153837667
