0.5000000000000003	0.001517871777565023	0.08053572875324755	0.17477671819803284
0.49742875625000194	0.0016342225198992142	0.07512138757714334	0.18253237196756592
0.49482149687500077	0.012671840393360823	0.19570386774257648	0.5502376978325607
0.49217771875000144	0.030968841103244348	0.2922633505861575	0.9206971210142194
0.4894969062499981	0.05446567854344734	0.36856691791871055	1.2847560436855616
0.48677854687499983	0.08163626062869812	0.4281122167516589	1.6296267890399179
0.48402210937500056	0.11142093008612056	0.4729986107477169	1.9402333449897184
0.48122705937499843	0.14297248260668388	0.5065859432434278	2.201923417917188
0.47839286562500044	0.17566584608529992	0.5356868163983001	2.4082992236645504
0.4755189656249995	0.20896613600822608	0.5674954977130016	2.5645342458118003
0.47260480937499916	0.24257943414603184	0.605693693883192	2.681216883776086
0.46964983750000083	0.27689999941555077	0.6499232913915836	2.7680540457131593
0.4666534749999997	0.312440741852878	0.6959797964298393	2.829714515875793
0.4636151437500017	0.3489838358823803	0.7367715894451707	2.864628781163205
0.460534253124999	0.3859260043178662	0.7677492689412297	2.8691768990494113
0.45741020937500093	0.42299146025975043	0.7922523802632275	2.843473503453652
0.4542424000000002	0.4601295775259627	0.8169971682310656	2.7945529802115425
0.45103022812499977	0.4966742535783904	0.8441406833622238	2.734042231075964
0.4477730562500009	0.5307957929908285	0.872701155282562	2.6718438708283947
0.44447025937500095	0.5600498593873361	0.9022866533441368	2.612093887747698
0.441121206249999	0.582577561769364	0.9327611630159228	2.553362959491435
0.43772524062499985	0.5980104979019288	0.9634147832324684	2.4911669382333907
0.43428169999999944	0.6078495733949206	0.9936692468374375	2.4216614423929053
0.43078993437500107	0.6150474229972949	1.023387001678788	2.34578105501954
0.42724925312500034	0.6224789444992302	1.0518000370722391	2.270209245813496
0.42365897499999994	0.6315198390742207	1.0768310933129202	2.2026360587706173
0.4200184156249997	0.6421215783226866	1.0961996369128608	2.1454038304857592
0.4163268562499999	0.6540508795043125	1.108843821518472	2.093915287991834
0.4125835906249998	0.6674198690602497	1.114927329949126	2.040882546786789
0.408787890625	0.6819709592884454	1.1154613341352995	1.982647277361982
0.404939028125	0.6970370849244795	1.11251336811688	1.9219282115696408
0.4010362531249997	0.7120326336275482	1.1088069644903247	1.8645085548216833
0.3970788062500005	0.7265813857604394	1.106561920940803	1.814384970093022
0.39306592812500063	0.7401135630310232	1.1067723361157866	1.7720647156229719
0.38899684687499964	0.751646060912172	1.1091869069185738	1.734147061985157
0.3848707656249999	0.7602381565646552	1.112146857753426	1.6953516000598934
0.3806868874999992	0.7655110165075278	1.112795162852979	1.6534846211757153
0.37644440312499916	0.7680208469540173	1.1090706372947363	1.611944335696364
0.3721424968749993	0.7685853756025611	1.1016475094533318	1.57580289926569
0.36778033749999917	0.7676839915645055	1.0942399314720048	1.5458881940622358
0.36335707500000036	0.7661436842612966	1.092058228031972	1.5196220823331685
0.3588718499999999	0.7652257391946446	1.0989575071023006	1.4980082069950265
0.3543238000000003	0.7657957719728717	1.1146408965086276	1.4875422422634745
0.34971204687499996	0.767802998840167	1.134613051915082	1.492292603705471
0.34503569687500074	0.769730693026777	1.152913540132043	1.5053545404108788
0.3402938437500005	0.7690588987653373	1.164433810124579	1.511564597699961
0.33548557187500094	0.7640371728266329	1.1665553684647862	1.5009522049803687
0.33060994687499945	0.7547006267372883	1.1600690553194801	1.4758566942307343
0.32566603124999943	0.7428626846350886	1.1490117858407825	1.4489263532448875
0.3206528687500002	0.7309036540590379	1.1405889012906034	1.436079195314301
0.31556948125000117	0.7205944321256899	1.1416427304432832	1.4450893370994016
0.3104148874999999	0.7134738295401611	1.151551630054645	1.4683233144487138
0.3051880968750001	0.7111372217894084	1.1608805463946787	1.4885320866500054
0.29988809062500027	0.7135031619639547	1.1596867085376215	1.4933855965517677
0.2945138468749994	0.7185134581999792	1.1454610512201875	1.4797075117700866
0.28906433437500006	0.7242453230201489	1.1230752771397243	1.4463541066153511
0.2835384781249999	0.7291300269156443	1.1002359146050067	1.3976530391185018
0.27793522187500025	0.7321451440700749	1.0790110450566353	1.3514128822444198
0.2722534843750002	0.7336793242733443	1.054781686873065	1.3204158432903452
0.26649215624999945	0.7349439447757916	1.0261250491533522	1.3009387250433937
0.26065013437499934	0.7370356336687653	0.996374797503272	1.2844605068689199
0.2547262812499995	0.7402920373847248	0.9681770043098923	1.2664178242641533
0.24871944687499994	0.7438860042082913	0.9423011304440111	1.2472771246331713
0.24262847812499932	0.7462417748819528	0.9182916859440516	1.2298373228775128
0.23645219062500059	0.7461105219566205	0.8942524108577892	1.2166826062362484
0.23018939062499996	0.7429674711168043	0.8694666817416882	1.2083824064763165
0.22383886874999995	0.7362842092108964	0.8475988779165526	1.2023059192591112
0.2173993906249998	0.7259437703809217	0.8353971977667382	1.189776103439328
0.21086971874999982	0.713720749784995	0.8352426038746402	1.1581140237982857
0.20424858125000028	0.7025780615685994	0.8425388822557598	1.1059365118011988
0.1975346999999993	0.6936594886697772	0.8531245568056918	1.0531023808439182
0.19072677203125016	0.6857805677913897	0.8648378494511775	1.0190230288237259
0.18382349062500009	0.6776845237620026	0.8729253165475718	1.0020812989072236
0.1768235124999999	0.6690621641017661	0.8706936591089274	0.9939217533648118
0.1697254874999997	0.6601226686133648	0.8544205713918136	0.9909780230806728
0.16252803125000032	0.6510983369063026	0.8250019861863916	0.9900053644148386
0.15522976562500024	0.6422257897838162	0.7871144927186442	0.9868552096614426
0.14782927187500008	0.6339232358221703	0.7484900931010363	0.9787880087009732
0.14032511875000012	0.6262534174501899	0.7165670088240628	0.9645101380920755
0.13271585312499953	0.618846429800106	0.694551444771223	0.9440678723689386
0.12500000000000008	0.611513859446632	0.6809212959911739	0.9197271834599144
0.11805555499999976	0.6053280919088183	0.6729157802112746	0.8954846042811335
0.1111111112499997	0.600463500970669	0.6694457972310797	0.8748559770686862
0.1041666662500002	0.5968381037749553	0.6686237892556655	0.8557212590407989
0.09722222250000022	0.5950924491457064	0.6701786446349813	0.8355926081827496
0.09027777749999989	0.5957713551321897	0.6734732590040148	0.8113314232546862
0.0833333337499999	0.598842389379044	0.677346539083255	0.7817431942894647
0.07638888875000027	0.6033837636602626	0.6801619440035888	0.7486343048827792
0.06944444500000004	0.6082443838184652	0.6804411827466131	0.7153120598210126
0.06250000000000004	0.6128672631140251	0.677916219399951	0.6838971482900367
0.05555555499999981	0.6172803407329195	0.6731772719877196	0.6542034892004792
0.04861111125000011	0.6214816249401701	0.666736520997304	0.6248522970671441
0.041666666249999915	0.6251641832493651	0.6592574520549119	0.5946720990074031
0.03472222250000002	0.6281840923483301	0.6518621321424043	0.5631344064368726
0.027777777499999906	0.6307648139169889	0.6455951606361622	0.5309887087993127
0.02083333374999994	0.6330396389747116	0.6408109939719275	0.5013376083985833
0.013888888749999953	0.634776317734826	0.6375154245198459	0.47878026008203034
0.006944446656250006	0.6355141317554815	0.6356086942140604	0.46584585824994407
0.0	0.5427981045479916	0.7018088857224187	0.4535709090468154
