0.5000000000000003	0.0015113306507265304	0.07526407613524046	0.1570025488672102
0.49742875625000194	0.001757527746725532	0.07999394368994689	0.1608402293965797
0.49482149687500077	0.013132958132848798	0.21230819427688435	0.48110471190511644
0.49217771875000144	0.031862115756626445	0.32474186840915586	0.8018700627159062
0.4894969062499981	0.05534660480389242	0.42188962168355826	1.118759531365534
0.48677854687499983	0.08130392321255459	0.507110222904223	1.4252266098492523
0.48402210937500056	0.10807409188493362	0.5827430871133098	1.714171508769619
0.48122705937499843	0.1347726541231173	0.6504251012884091	1.9792015834188863
0.47839286562500044	0.1614419349930613	0.7114304440605554	2.2148703886198615
0.4755189656249995	0.18877724782839864	0.7665555367437665	2.41594380614166
0.47260480937499916	0.21748117128268146	0.8157527386173975	2.577636376424856
0.46964983750000083	0.24791685729289184	0.8584869280922501	2.698595613128638
0.4666534749999997	0.2801391321921655	0.8954533285960207	2.7838994266758
0.4636151437500017	0.31370184806133583	0.9299290860411611	2.8429848028689415
0.460534253124999	0.34752702857390455	0.9655935832111031	2.8832367205841396
0.45741020937500093	0.3804478807581823	1.0025666731935876	2.9061920992508194
0.4542424000000002	0.4117369035736354	1.0374321658883496	2.9098796972121423
0.45103022812499977	0.44106065028736824	1.0671481823679714	2.8938431039759434
0.4477730562500009	0.4681986630410477	1.0909130985083624	2.861621736880897
0.44447025937500095	0.49291882536107584	1.109023432157388	2.81855734065384
0.441121206249999	0.5153664047405154	1.1220404948565201	2.7682474571421296
0.43772524062499985	0.5362893979741021	1.130858252428766	2.7123561064805197
0.43428169999999944	0.5568588315161852	1.1365140941261167	2.652543414474314
0.43078993437500107	0.5778162804249617	1.1399228517701252	2.589835110270211
0.42724925312500034	0.5989605702635755	1.141647384159965	2.5228747196006056
0.42365897499999994	0.6196562014779357	1.1420835493906147	2.4498764320845856
0.4200184156249997	0.6393683465527448	1.142412592034433	2.3726349206989754
0.4163268562499999	0.6580671686752277	1.1451064130496336	2.2970763317537553
0.4125835906249998	0.6763353140317756	1.152424426588057	2.2295986967894685
0.408787890625	0.6950144983271281	1.163560821589543	2.1733213090453014
0.404939028125	0.7146162208324094	1.1732668993386808	2.1268276608221917
0.4010362531249997	0.7348196903786332	1.174654145110117	2.085697440638552
0.3970788062500005	0.7546921050893037	1.164701843588302	2.0463374831437737
0.39306592812500063	0.7735620164364161	1.1463951406636226	2.0089361994159836
0.38899684687499964	0.791380413931641	1.126305650347582	1.97756542091781
0.3848707656249999	0.808202938536173	1.1107192104167545	1.956805224228387
0.3806868874999992	0.8239846290131722	1.0990417055124984	1.9443948594166056
0.37644440312499916	0.8385908234385435	1.0854256334026449	1.9311391271659692
0.3721424968749993	0.8509485009046369	1.0708870910970119	1.9123866302494137
0.36778033749999917	0.8599229852479598	1.0583102892085694	1.8907341479814501
0.36335707500000036	0.8662422997255462	1.047199582921434	1.8672267974398347
0.3588718499999999	0.8717789807057761	1.0373522310794945	1.838476572411903
0.3543238000000003	0.8779176485992435	1.0286315935428278	1.8020577714264756
0.34971204687499996	0.8849872994845444	1.0195662398802903	1.7621527264321375
0.34503569687500074	0.8923549461154374	1.0091805771704432	1.727900268051823
0.3402938437500005	0.8986585201822745	1.0000441622604077	1.7074039538279133
0.33548557187500094	0.9025971620680086	0.9975897623678948	1.7033639471248891
0.33060994687499945	0.9036362056732947	1.0054707104151897	1.711725767662753
0.32566603124999943	0.9018606166007903	1.0221304408390544	1.7245371180150753
0.3206528687500002	0.8976469092821969	1.0424395987529778	1.7355607192873919
0.31556948125000117	0.8912048477933213	1.060857004459272	1.742906295357812
0.3104148874999999	0.8828487352531792	1.0735846054787082	1.7439325508032466
0.3051880968750001	0.8730984510908023	1.0802208111998155	1.7302281275768714
0.29988809062500027	0.8619243066926631	1.0835933858679292	1.6929109672241598
0.2945138468749994	0.8489995607408334	1.0869744308582907	1.6306269226965175
0.28906433437500006	0.8344788146400418	1.0904231269288704	1.5513544460395525
0.2835384781249999	0.8183691034107117	1.0902461137817152	1.4682215156064764
0.27793522187500025	0.8007233892768985	1.0821029964364337	1.3916330934907586
0.2722534843750002	0.782603701853423	1.0638765476411698	1.3290349965453312
0.26649215624999945	0.7657515944760652	1.0367639449214077	1.2857319022068556
0.26065013437499934	0.7519412481595917	1.004935283532005	1.2577270841354922
0.2547262812499995	0.7426533443602635	0.9733414391240147	1.2344037704143482
0.24871944687499994	0.7385600798924444	0.9453843274029496	1.2105634622653758
0.24262847812499932	0.738884649672189	0.9216097293028261	1.1885902488508193
0.23645219062500059	0.7406523221623572	0.9003316170014996	1.1684790377188823
0.23018939062499996	0.7406302287590328	0.880003880381701	1.1447375634424186
0.22383886874999995	0.7374808556327921	0.8613046309544188	1.1217472908279842
0.2173993906249998	0.7310972802208887	0.8466155405746612	1.1086687654470104
0.21086971874999982	0.7222470514483964	0.8383684493662371	1.100698635349979
0.20424858125000028	0.7119557762825316	0.8353857213992055	1.0893784301212868
0.1975346999999993	0.7011015611436527	0.8318182338789508	1.069362449441693
0.19072677203125016	0.6914307219611301	0.82274345613249	1.0368686303538046
0.18382349062500009	0.6834566836747682	0.8094469093439624	0.9973324423545528
0.1768235124999999	0.6761536962487282	0.7958398545345887	0.9632029181526781
0.1697254874999997	0.6696235924231619	0.7844582957481007	0.9385605529131416
0.16252803125000032	0.664797771491402	0.7759551899081746	0.9182522506358056
0.15522976562500024	0.6621724745761994	0.7697846788929034	0.8986998446899274
0.14782927187500008	0.6613911725271588	0.7648706857719909	0.8808148646263668
0.14032511875000012	0.6617426194172181	0.7600780691553845	0.8660287952034917
0.13271585312499953	0.662279298755295	0.7548709829617563	0.8538187503771575
0.12500000000000008	0.6613877053452	0.7493280853164495	0.8425363125542816
0.11805555499999976	0.6578567891474392	0.7413478408959164	0.8295350071165252
0.1111111112499997	0.6507766632576172	0.7319339641440124	0.8184744466713905
0.1041666662500002	0.6411150588810091	0.7217938130974798	0.8137892600158674
0.09722222250000022	0.6293675278374127	0.7101168095563933	0.8126796615694193
0.09027777749999989	0.6177268209447156	0.6954032382301482	0.8103963860736674
0.0833333337499999	0.6067986910488129	0.6766152259235929	0.8053312328637988
0.07638888875000027	0.596638276364539	0.6541841482866209	0.7967547931073542
0.06944444500000004	0.5871375296934451	0.6293996459435867	0.7842437227235313
0.06250000000000004	0.5786640186029818	0.6041340146114438	0.7684935495569045
0.05555555499999981	0.5719112166881083	0.5811528490472115	0.75177047575329
0.04861111125000011	0.567360050223553	0.5632048929731573	0.7370847610357357
0.041666666249999915	0.5649620973084216	0.5517009480038298	0.726020238855472
0.03472222250000002	0.5642749636223551	0.5466684655013692	0.7183797450960187
0.027777777499999906	0.5646264282073561	0.5470110497044146	0.7144063238093535
0.02083333374999994	0.5652579741026532	0.5507710592399014	0.7156602136719654
0.013888888749999953	0.5656001754903885	0.5558264864300942	0.7220652448402631
0.006944446656250006	0.5653120787997677	0.5603176962623889	0.7301013014883652
0.0	0.39230182254789703	0.6897664020080768	0.7420833518182244
