0.5000000000000003	0.0018263598998554183	0.09819633303638414	0.1739635962907062
0.49742875625000194	0.001732417488301047	0.10695544329549934	0.17980132998653103
0.49482149687500077	0.013957440689882514	0.27721876220320435	0.5454356952355041
0.49217771875000144	0.035657960271884705	0.412219178481121	0.9180733134151257
0.4894969062499981	0.06437672201365761	0.5173662293107743	1.2830426629364176
0.48677854687499983	0.09775821329211723	0.6008865847251345	1.6216856751414555
0.48402210937500056	0.13369570669398714	0.6709853373312994	1.9201316831807755
0.48122705937499843	0.1704248653340532	0.7308625889727431	2.16944641753685
0.47839286562500044	0.20675772524706873	0.7796771439741049	2.3655718104340098
0.4755189656249995	0.24208194045045364	0.8178342587629392	2.512456893821238
0.47260480937499916	0.2762898144606599	0.8496101022644996	2.61877506690936
0.46964983750000083	0.3096827754589885	0.8808765810214007	2.690933251914422
0.4666534749999997	0.3427707456923473	0.9155554111426405	2.7328123179591404
0.4636151437500017	0.37610963866015135	0.9539973073994746	2.7494489357552
0.460534253124999	0.40998451196658303	0.9924805910209075	2.747191489588221
0.45741020937500093	0.44412516702617616	1.025997902834276	2.7308377587024752
0.4542424000000002	0.47771175709506974	1.0537634057679823	2.701846878089946
0.45103022812499977	0.5096684615812155	1.0778114767714109	2.659320344034475
0.4477730562500009	0.5393300041508304	1.0971917557838087	2.6039291473123325
0.44447025937500095	0.5665640013321215	1.1089611610151504	2.5400803743066165
0.441121206249999	0.5910670235503945	1.1126441268299125	2.472525345129654
0.43772524062499985	0.6121148094187622	1.1105920268213538	2.4024155589653353
0.43428169999999944	0.6289832458901705	1.1044318265130504	2.329440355257951
0.43078993437500107	0.6419348201763465	1.094240156642878	2.2581823929210794
0.42724925312500034	0.6527338543312189	1.0820016974129265	2.195380346453964
0.42365897499999994	0.6642309573853252	1.07098364193183	2.1421148840246067
0.4200184156249997	0.6786607987313732	1.0620610219931703	2.094174300206625
0.4163268562499999	0.6963068000866778	1.0537727944647308	2.0461930288781764
0.4125835906249998	0.7158388537237258	1.0453849285051398	1.9936189990866362
0.408787890625	0.7356614314536237	1.0383830808828147	1.9343039266380524
0.404939028125	0.7542265114593839	1.0346857753493768	1.8713290145766235
0.4010362531249997	0.7701156203473628	1.034350827730073	1.812514564325657
0.3970788062500005	0.7824313135387343	1.034703321617627	1.763174324604791
0.39306592812500063	0.7910462452865449	1.031644466262903	1.720534963107314
0.38899684687499964	0.796461248892289	1.022803555372128	1.6772901688419262
0.3848707656249999	0.7994824323091001	1.0098697981192324	1.6293419121563926
0.3806868874999992	0.8011975599383832	0.9979749433321757	1.5785782025500161
0.37644440312499916	0.8030667110689466	0.9924498433808421	1.5293320832578245
0.3721424968749993	0.8063263090538284	0.9957487110916411	1.485295762435802
0.36778033749999917	0.8114680365424273	1.0069500421866573	1.449256554701063
0.36335707500000036	0.8182174950422284	1.0235367993537672	1.4226518486263453
0.3588718499999999	0.8259800614418902	1.043130955156873	1.4036525072113233
0.3543238000000003	0.8341516053914878	1.064071391303643	1.3861894779768051
0.34971204687499996	0.8421399997762768	1.085194605946476	1.3640832910951886
0.34503569687500074	0.8494396032919138	1.1053766059829748	1.3375379571431187
0.3402938437500005	0.8554605442770408	1.1230581696151205	1.3114327042382836
0.33548557187500094	0.8597714579652457	1.1360291353307457	1.2884402769389829
0.33060994687499945	0.8626481766315024	1.1412190121911825	1.270116208895545
0.32566603124999943	0.8648161641820429	1.1358370184153372	1.2602075967292876
0.3206528687500002	0.8667327327579005	1.1198240894018185	1.262133298263715
0.31556948125000117	0.8682932298456196	1.0961325585767643	1.2759329704044797
0.3104148874999999	0.8689171916156592	1.0683709258001581	1.2975446613957944
0.3051880968750001	0.8678210318383154	1.039393071088097	1.3193158466084491
0.29988809062500027	0.8640054481764703	1.0114988231005995	1.3339101167714111
0.2945138468749994	0.8565536402870757	0.9861231425267045	1.3398298273471951
0.28906433437500006	0.8457404024173496	0.9635911749662132	1.3403288855438067
0.2835384781249999	0.8330854808639249	0.944231465764612	1.336718820176577
0.27793522187500025	0.8201206840469448	0.9285087724381804	1.327454938681323
0.2722534843750002	0.8078282825256193	0.9159237678805785	1.3122444084205602
0.26649215624999945	0.7967332313631614	0.9064618280642035	1.2940909197853276
0.26065013437499934	0.7871926022383542	0.9007662913025473	1.2791561609651843
0.2547262812499995	0.7790979054947879	0.897476177355311	1.2748268522282014
0.24871944687499994	0.7719657914009783	0.8924118337808212	1.2821292957762833
0.24262847812499932	0.7655154125461883	0.8802337496886984	1.293253574443925
0.23645219062500059	0.7591350307709169	0.8585550409385948	1.2976222099237273
0.23018939062499996	0.7520815030141839	0.8313587095755782	1.2889218713206685
0.22383886874999995	0.7438991027880317	0.807266182319061	1.2689027941468718
0.2173993906249998	0.7340996391972001	0.79204210038194	1.2445111094453583
0.21086971874999982	0.7227451004664538	0.7853675650259105	1.222042785877214
0.20424858125000028	0.7099816980067442	0.7847384849410513	1.202915982044582
0.1975346999999993	0.695310793740207	0.7873559468522274	1.1829234521354501
0.19072677203125016	0.6784726915484248	0.7883270628703237	1.155362301371071
0.18382349062500009	0.6597588171012672	0.7821961533422433	1.1185308361309034
0.1768235124999999	0.6398627491690324	0.7701796857457711	1.079689759906604
0.1697254874999997	0.6197075521491991	0.7587374283373307	1.0472923012117565
0.16252803125000032	0.6000802101557621	0.750145507439065	1.0234622153308683
0.15522976562500024	0.5818054346528024	0.7421422577607758	1.0066120913959253
0.14782927187500008	0.5661814537730866	0.7327843577405831	0.994392474830777
0.14032511875000012	0.553919276584334	0.7234329387846188	0.9853536717458524
0.13271585312499953	0.5447623805818242	0.7177670715523898	0.9784146967956577
0.12500000000000008	0.5377432144925081	0.7163757735824245	0.969916620221553
0.11805555499999976	0.5324945784956733	0.7136171131167954	0.9565700559638085
0.1111111112499997	0.5288594919503226	0.7063892227048783	0.9400345334415379
0.1041666662500002	0.5271243746559207	0.694072264332189	0.9196621399276171
0.09722222250000022	0.52668006242123	0.6789086911724581	0.8953063273237543
0.09027777749999989	0.5275057493783675	0.6623988934923182	0.8659996633993928
0.0833333337499999	0.5296624011052217	0.6453727789517062	0.8333478082673182
0.07638888875000027	0.5331413995902661	0.6291634782285668	0.8019106698305024
0.06944444500000004	0.5375761618545487	0.6147842985596128	0.7758345933050146
0.06250000000000004	0.5424502092729944	0.6021195301572557	0.7561772884835721
0.05555555499999981	0.547269678105176	0.5908822840569194	0.7409924660041651
0.04861111125000011	0.551644789812722	0.5814434647767179	0.727467110878575
0.041666666249999915	0.555373287567758	0.5743422703235513	0.7139831707069356
0.03472222250000002	0.5583117289664181	0.5694755706210074	0.7005488923956574
0.027777777499999906	0.5602107589102202	0.5659097578900538	0.6879487520050138
0.02083333374999994	0.5608599379623788	0.5627245518960013	0.6767322095497783
0.013888888749999953	0.560360799512898	0.5598116597386698	0.6670090620511888
0.006944446656250006	0.5588215370322146	0.557666434082644	0.6593079322804164
0.0	0.5601666549687633	0.5401852313373431	0.6533524112197494
