0.5000000000000003	0.0019797287291772616	0.1089044110264042	0.1826161975480121
0.49742875625000194	0.0018575434208401198	0.10696308920156405	0.18058229381169572
0.49482149687500077	0.014028536197122986	0.27717771747677084	0.5430424967655929
0.49217771875000144	0.03424536745175908	0.41100470137603234	0.9056456689395846
0.4894969062499981	0.05988631823725805	0.5163122510115313	1.259159433702911
0.48677854687499983	0.08894922388882508	0.600646391579445	1.5906318845255083
0.48402210937500056	0.12057373647445462	0.6691500898418407	1.8871156521210846
0.48122705937499843	0.15429236508903174	0.7251213018358552	2.139229072760971
0.47839286562500044	0.1894079299463809	0.7708210759066926	2.3422228626906825
0.4755189656249995	0.22547567933416962	0.8075361080134651	2.4972950787609207
0.47260480937499916	0.2626095052970425	0.8370792986512264	2.612947555047899
0.46964983750000083	0.30095136984289395	0.8632271925723228	2.6999404615443385
0.4666534749999997	0.34036506244426945	0.8902336489931494	2.761960682748047
0.4636151437500017	0.3804605638702019	0.9207687205350061	2.7938964476723602
0.460534253124999	0.420581959430422	0.9554292290012191	2.7897228063348853
0.45741020937500093	0.4595038781786111	0.9912760115257413	2.751825834094287
0.4542424000000002	0.4955496829132848	1.021672081600457	2.692978572327396
0.45103022812499977	0.5275739358556539	1.041309580193259	2.628453418873184
0.4477730562500009	0.5557111239555452	1.0511251900937681	2.5651691543979727
0.44447025937500095	0.5809973541678005	1.0565593478687494	2.5009293152013616
0.441121206249999	0.6043627326039761	1.0604205587866864	2.4324045217635732
0.43772524062499985	0.6258784057734358	1.0604132350957294	2.360206032511494
0.43428169999999944	0.6451134817240939	1.0555965944713366	2.288393421409886
0.43078993437500107	0.6617381274398845	1.0495645518805314	2.221141961593365
0.42724925312500034	0.6759643943021832	1.0462707848695367	2.158819101183226
0.42365897499999994	0.6883555782603341	1.047975404286639	2.0976260226380155
0.4200184156249997	0.6992940036020869	1.0556813908372848	2.033354765482668
0.4163268562499999	0.7084178834266288	1.0684782125255867	1.9642405651069565
0.4125835906249998	0.714602470116006	1.0826051646923969	1.8893164773373816
0.408787890625	0.7165681807316397	1.0921389709389329	1.808327466937341
0.404939028125	0.7140799289009325	1.0931807978051706	1.7249164359400841
0.4010362531249997	0.7083676708716495	1.0869171888892384	1.6454422067577092
0.3970788062500005	0.7013745854648382	1.0782425893687335	1.574899329517949
0.39306592812500063	0.6946919060646822	1.071976413176267	1.5165664691121628
0.38899684687499964	0.6892365295604944	1.069999390150925	1.4728767418455642
0.3848707656249999	0.6851494623035935	1.0710201383149536	1.4425590602794036
0.3806868874999992	0.6819575451387094	1.0717938537827103	1.416481691923461
0.37644440312499916	0.6801281068013858	1.0689461738929475	1.3820900746317641
0.3721424968749993	0.6818164647029079	1.060737621366264	1.3355619442096207
0.36778033749999917	0.6890693214169986	1.0476022816100528	1.2818415866728614
0.36335707500000036	0.7023163535259548	1.0307816040786626	1.2312010250141159
0.3588718499999999	0.7201947467073849	1.0113502370288339	1.197248811018895
0.3543238000000003	0.7400571523243622	0.9911761662777032	1.1854293518207242
0.34971204687499996	0.759109842814986	0.9733196460507314	1.1888463078853977
0.34503569687500074	0.7753672932354848	0.9602045474461443	1.198947310480159
0.3402938437500005	0.788042246638526	0.9519127086615096	1.211554163618119
0.33548557187500094	0.7972499189946702	0.9467421248472709	1.2248959907813397
0.33060994687499945	0.8038095013668634	0.942295892057322	1.2370484855467405
0.32566603124999943	0.8085088547234006	0.9363787748633335	1.2460497944198512
0.3206528687500002	0.8116239977575243	0.9279546871689214	1.2507384802733907
0.31556948125000117	0.813072806107305	0.9183784948870706	1.250460844353511
0.3104148874999999	0.8126735126957727	0.9112042114656429	1.245280475842343
0.3051880968750001	0.8101958452772413	0.9101002428237341	1.2377385277210766
0.29988809062500027	0.8054617188086367	0.916299068971051	1.2338915109916422
0.2945138468749994	0.7987097935008428	0.9282275744772749	1.2382412413534332
0.28906433437500006	0.7914213718063509	0.9437573917130546	1.2476273759698824
0.2835384781249999	0.7856296161823663	0.9602562586104547	1.2559527901118253
0.27793522187500025	0.782338393404364	0.974196782730448	1.2616314602813559
0.2722534843750002	0.7810460005433331	0.982561167350044	1.2658378712209835
0.26649215624999945	0.7801657600567714	0.9832428277804514	1.269009687294712
0.26065013437499934	0.7779680099379633	0.9747485700511206	1.2710636873876575
0.2547262812499995	0.7733722662735868	0.9577566296763225	1.2711973846124491
0.24871944687499994	0.7658527330707655	0.9360902824828896	1.2675132621774956
0.24262847812499932	0.7554584159224177	0.9140065812756613	1.2578632957133973
0.23645219062500059	0.7428793765555259	0.8926681350479101	1.2410977287265907
0.23018939062499996	0.7283094304035359	0.8703362730266977	1.2185792844002932
0.22383886874999995	0.7123027268925035	0.8465468478974285	1.195282988205875
0.2173993906249998	0.6974176566193238	0.8249071485637887	1.1763014895299566
0.21086971874999982	0.6862396000104406	0.8096002542746173	1.1625075865836056
0.20424858125000028	0.679789261428312	0.8012065053285774	1.1527462794270948
0.1975346999999993	0.6782457707158105	0.7977130575011289	1.1471603478922776
0.19072677203125016	0.6810912182547149	0.7972170850050981	1.145468293711452
0.18382349062500009	0.686838494254613	0.7981709027959171	1.1444669361876403
0.1768235124999999	0.6929059978174701	0.7978749355770896	1.1397134412103673
0.1697254874999997	0.6964138868718598	0.7938137309610243	1.129929787135496
0.16252803125000032	0.695342908302328	0.7858938646112741	1.1169213548293588
0.15522976562500024	0.6892036033418101	0.775616508081096	1.0992512861080213
0.14782927187500008	0.6790582413095891	0.7637157129980753	1.0720564990688248
0.14032511875000012	0.666950249576878	0.7489824908097403	1.0341652429722077
0.13271585312499953	0.6537701318627425	0.7317659149791137	0.9907870678586703
0.12500000000000008	0.638689954848098	0.7153980150923426	0.9493844393970003
0.11805555499999976	0.6225717276810172	0.6996578778348852	0.9142857168830543
0.1111111112499997	0.6077058475642435	0.6854154865790789	0.885612749181983
0.1041666662500002	0.5948056762001153	0.6721044756823267	0.8602562146518185
0.09722222250000022	0.5847820865211539	0.660879036108812	0.8403753749474395
0.09027777749999989	0.5770012524495097	0.6520661120858289	0.8294198493093188
0.0833333337499999	0.57025270877828	0.6452986038510856	0.8265788213417387
0.07638888875000027	0.5634787091023035	0.639136485631331	0.8263406009933304
0.06944444500000004	0.5562667354500713	0.6314533284126057	0.8238233471148771
0.06250000000000004	0.5489568343953428	0.6202658598340821	0.8169237139748561
0.05555555499999981	0.542042894901055	0.60458176525933	0.8047417981766557
0.04861111125000011	0.5355285388404155	0.5856533543058134	0.7875651555112879
0.041666666249999915	0.5294600709955629	0.5670343187656407	0.7668440239176932
0.03472222250000002	0.5245598690615151	0.5521120641581087	0.7422607033122077
0.027777777499999906	0.5215632167873114	0.5418967813120397	0.7113869497185267
0.02083333374999994	0.520778097910843	0.5350414239389314	0.6743785255230721
0.013888888749999953	0.5219256308326059	0.5297894673999449	0.6362814825005069
0.006944446656250006	0.5237314556139877	0.5256306611201598	0.6047942325097228
0.0	0.4940529584510102	0.5543433167777533	0.5863042024306322
