0.5000000000000003	0.001514706218781143	0.07808492652995416	0.14808460209193267
0.49742875625000194	0.0016412640342560513	0.07617368529363222	0.15621957872800238
0.49482149687500077	0.013393924783147586	0.20242590277473774	0.4716199092245025
0.49217771875000144	0.03367678990164803	0.30795514913522565	0.7941760833502252
0.4894969062499981	0.06005098017707589	0.39550974527760957	1.1147989876472908
0.48677854687499983	0.09076084865644608	0.46782076318381616	1.411621370804349
0.48402210937500056	0.1245987410825377	0.5281244329183329	1.6610657236169364
0.48122705937499843	0.1599672971172918	0.580022087906923	1.8593454419676947
0.47839286562500044	0.19494220812919202	0.6272242325046498	2.018686742102281
0.4755189656249995	0.22875652135424443	0.6722880737435327	2.145050099114124
0.47260480937499916	0.2617336199849325	0.7149419141769298	2.233536407641159
0.46964983750000083	0.2942674255342594	0.7530360297949577	2.2808926617330685
0.4666534749999997	0.3266656983293436	0.785997014686973	2.2953045966007775
0.4636151437500017	0.35913521736054077	0.8171601561828108	2.2928781608772617
0.460534253124999	0.3914862100314963	0.8518835277154665	2.286163476422863
0.45741020937500093	0.42313156972061144	0.892557860321213	2.2792445227791185
0.4542424000000002	0.45346098804335017	0.9361196060985297	2.272774667120832
0.45103022812499977	0.48184436215204185	0.9770701684187274	2.2681653091155707
0.4477730562500009	0.5074640213803299	1.0110729290661906	2.265871904910392
0.44447025937500095	0.5297036658391935	1.035295607995969	2.263024119117832
0.441121206249999	0.5487307681446204	1.0482708211451726	2.2554022888710716
0.43772524062499985	0.5651934586907315	1.051161789232754	2.2411484945175397
0.43428169999999944	0.5797454938574564	1.0479143978296372	2.220401622638109
0.43078993437500107	0.5926583926111392	1.0435083065806603	2.1915107861798213
0.42724925312500034	0.6036441795553269	1.0423676374839792	2.150193469910393
0.42365897499999994	0.6126310944754959	1.0472598349287905	2.0941406308129675
0.4200184156249997	0.6205875603862288	1.057390569041199	2.0276351921188525
0.4163268562499999	0.6288633997089194	1.0684427793011277	1.9604181007361632
0.4125835906249998	0.6378200370169517	1.0774148167599351	1.903826745467383
0.408787890625	0.6466904917628559	1.0846269645877245	1.8625621647766053
0.404939028125	0.6550390248206402	1.0900207825256427	1.829360065020906
0.4010362531249997	0.6636480159552706	1.0926354524523052	1.7945542913078552
0.3970788062500005	0.6734863871203226	1.093149838033983	1.7538005469052016
0.39306592812500063	0.6846596409929119	1.0933536981112975	1.707213095989906
0.38899684687499964	0.6965671758224585	1.0925124430635225	1.6591609974483064
0.3848707656249999	0.7082946020065195	1.0875655836312346	1.617171010752958
0.3806868874999992	0.7190826607157721	1.0774082818889252	1.5846517044359267
0.37644440312499916	0.7284338855734126	1.0646342239140387	1.5571334083754627
0.3721424968749993	0.7362604053190812	1.0535593626764528	1.5294658041532978
0.36778033749999917	0.7428531506719755	1.0466190656242351	1.5015790792564754
0.36335707500000036	0.7492403519258327	1.0416207219508495	1.4745066338121395
0.3588718499999999	0.7564080535183896	1.0356490000007346	1.4460788124656754
0.3543238000000003	0.7635175577573518	1.032600207030093	1.4159284110065544
0.34971204687499996	0.7691606430295176	1.0350179104991706	1.38969255468896
0.34503569687500074	0.7732078580854255	1.0375555102373861	1.3727597632425155
0.3402938437500005	0.7766504900293405	1.0380352517606006	1.3658781138573843
0.33548557187500094	0.780755168600318	1.0386955426852773	1.367475043088468
0.33060994687499945	0.7862953775780892	1.0419864670383885	1.3758875703162945
0.32566603124999943	0.7927492099168352	1.0483304014315278	1.3865094247988043
0.3206528687500002	0.7983360379067891	1.0541963124776477	1.3934401426039882
0.31556948125000117	0.801185053624102	1.0542035678388892	1.3935640224817147
0.3104148874999999	0.800210794966195	1.0438104574691587	1.387811711139304
0.3051880968750001	0.7954452352928666	1.0210554380470944	1.3820137810180162
0.29988809062500027	0.7890880584894854	0.9888252917968503	1.3823105069938557
0.2945138468749994	0.7839922027801219	0.955183362820745	1.388985045739554
0.28906433437500006	0.7805292971173071	0.929482292222156	1.3942816336800992
0.2835384781249999	0.7767458765507772	0.9171812519855491	1.3868827616218067
0.27793522187500025	0.7707841897481754	0.9187711996422423	1.360603244862358
0.2722534843750002	0.7622995519256868	0.9307984107067914	1.3206871336116275
0.26649215624999945	0.7524281456811739	0.9471568164359834	1.2804972860068446
0.26065013437499934	0.7430217221145631	0.961452808250424	1.2492895704386004
0.2547262812499995	0.7352849559779853	0.969046760851743	1.2252472728594508
0.24871944687499994	0.7291400997759092	0.9672618021190721	1.2019469511156224
0.24262847812499932	0.7239895826760843	0.9551275359903545	1.1771229767294868
0.23645219062500059	0.719375034203011	0.9323528502201551	1.1537592829359247
0.23018939062499996	0.7148040900850258	0.9007875579109341	1.1333822531099453
0.22383886874999995	0.709415734622689	0.8658674867153188	1.1137079803766021
0.2173993906249998	0.7025698094765392	0.8327883945982596	1.0922899113588385
0.21086971874999982	0.6941745161760918	0.8030759274666499	1.0699507943678825
0.20424858125000028	0.6842027006534068	0.7758810023573708	1.05082367305464
0.1975346999999993	0.6724633686521356	0.7507697356283805	1.0384631784666813
0.19072677203125016	0.6600214423900308	0.7292005354169193	1.0329255519597662
0.18382349062500009	0.6490646315978069	0.71302811637567	1.0329282772760233
0.1768235124999999	0.6409169768723985	0.702176792389668	1.0355623545160348
0.1697254874999997	0.6355673340230424	0.6948672325375232	1.035453128511647
0.16252803125000032	0.6324344407393058	0.6896346128343338	1.0281318378096933
0.15522976562500024	0.630483880405852	0.6860376567225152	1.0128489629548179
0.14782927187500008	0.6286400049596675	0.6837777156344278	0.9924698668543754
0.14032511875000012	0.6263376112173642	0.681400981718209	0.9701389369171453
0.13271585312499953	0.6232503689965507	0.6760642999824977	0.9451302338022836
0.12500000000000008	0.619711752564631	0.6657878808295145	0.9146488663681255
0.11805555499999976	0.6164204366735495	0.6529202748018189	0.8807736685120582
0.1111111112499997	0.6140752264437375	0.6428092529504097	0.8474033129479904
0.1041666662500002	0.6122524150136613	0.6374287440664738	0.81461608263972
0.09722222250000022	0.6103010906704432	0.636888639890695	0.7850348383457776
0.09027777749999989	0.607788866334013	0.6382697433007838	0.759783313997673
0.0833333337499999	0.6044020437881175	0.6379460855907593	0.7374147200036631
0.07638888875000027	0.6003480309376458	0.6337267083130175	0.7159293273892173
0.06944444500000004	0.5960799144434905	0.6252085648088869	0.6946724035922893
0.06250000000000004	0.5921696287658864	0.613615929955606	0.6743911773557006
0.05555555499999981	0.5892075491267368	0.6014794197947456	0.6562135477773477
0.04861111125000011	0.5876133107923719	0.5915622365698011	0.6407687160178128
0.041666666249999915	0.587258708922062	0.5853166955493238	0.6278884303524526
0.03472222250000002	0.5873764196710938	0.5823002271409047	0.6166639661645288
0.027777777499999906	0.5869913747315618	0.5810456327667973	0.6057810412826132
0.02083333374999994	0.5854818982267213	0.5803346184381682	0.593825742506564
0.013888888749999953	0.582908427176579	0.5798570680022781	0.5795797898192274
0.006944446656250006	0.5800205158178307	0.5797693769304408	0.5640815105780405
0.0	0.5530287960602769	0.6021552366643234	0.5607977776667064
