0.5000000000000003	0.0012985710357353176	0.07689727401041313	0.19459949105150337
0.49742875625000194	0.001486877305788378	0.07720791027415906	0.19295352473970734
0.49482149687500077	0.01204746739368656	0.20292054710968394	0.580855904368751
0.49217771875000144	0.030917449551482606	0.30531677045710415	0.9715798323588467
0.4894969062499981	0.056334266975640195	0.3889669791050901	1.3535043951702226
0.48677854687499983	0.08684354569674886	0.4596778178963289	1.7091715195626478
0.48402210937500056	0.12151069403199084	0.5225162127240258	2.021441781540277
0.48122705937499843	0.159633535590231	0.580012916374355	2.2798524560227276
0.47839286562500044	0.20029421647134513	0.6323014259319012	2.4826339860585245
0.4755189656249995	0.24234578229079012	0.6779550986599636	2.6329844709428314
0.47260480937499916	0.2849413488920414	0.7154947518593182	2.7347231347831706
0.46964983750000083	0.3278709832405496	0.7447985008811988	2.792047474696307
0.4666534749999997	0.3714685855089248	0.7667888922831295	2.812327037493482
0.4636151437500017	0.41598512012680816	0.7828626758453506	2.806871151109891
0.460534253124999	0.4606412407581237	0.7956095390123371	2.78684397698798
0.45741020937500093	0.5037250128306865	0.8088021357464282	2.758553676602084
0.4542424000000002	0.5435430602239875	0.824771659469403	2.7243809573341076
0.45103022812499977	0.5792974471013032	0.8425126689523922	2.6872800691469547
0.4477730562500009	0.6113835965007712	0.8600949164800357	2.6508282101483736
0.44447025937500095	0.6409279715500449	0.8782623958328173	2.6159194480533303
0.441121206249999	0.6695277710285291	0.8994758414308203	2.579158790771594
0.43772524062499985	0.6983714723523355	0.924429004995955	2.534925409897019
0.43428169999999944	0.7274374600899319	0.9519716829053549	2.4801594484496965
0.43078993437500107	0.7557145646764205	0.9809125195538556	2.4176895990358434
0.42724925312500034	0.7820286833935145	1.0090393104976114	2.351939854809208
0.42365897499999994	0.8055615529246766	1.032896419876099	2.2821367705828797
0.4200184156249997	0.8257072310598996	1.050494739905	2.204874689264121
0.4163268562499999	0.8420219366776731	1.0617703188213183	2.1194628646105675
0.4125835906249998	0.8548024681307301	1.0672953387477542	2.02834249175711
0.408787890625	0.8649702528662799	1.0686474934872177	1.9355043244583565
0.404939028125	0.8732665652010316	1.069102451753903	1.8446876239631547
0.4010362531249997	0.8797549148005243	1.0715033877446105	1.7578090954774153
0.3970788062500005	0.8839067169755976	1.0752112568791632	1.675087306438122
0.39306592812500063	0.8853711215936684	1.076460408724147	1.5988749434156602
0.38899684687499964	0.8843895370777773	1.072982573705149	1.5372514643780701
0.3848707656249999	0.8815185250657807	1.066116809350872	1.4960064097564472
0.3806868874999992	0.8777302250535665	1.0568911445512719	1.470480354107875
0.37644440312499916	0.8740736646851558	1.0428722147274891	1.455873499671087
0.3721424968749993	0.8707065816354479	1.021291557531843	1.4525711836523283
0.36778033749999917	0.8671097834330634	0.9925464525749553	1.457458664198095
0.36335707500000036	0.8626012553428667	0.9594674624885317	1.4636590499042457
0.3588718499999999	0.8565094660373146	0.9252542203348483	1.4667293220268276
0.3543238000000003	0.848418748351837	0.8926933773750609	1.465901577963228
0.34971204687499996	0.8384539706101871	0.8644313159724152	1.4622160778214621
0.34503569687500074	0.8271681059146102	0.8428442177214549	1.45741955481228
0.3402938437500005	0.8151748446001649	0.8295720999338183	1.4530392787415063
0.33548557187500094	0.8028255342710957	0.8253102522648177	1.4492828580759198
0.33060994687499945	0.7903864406746816	0.8297860053518592	1.444523502695443
0.32566603124999943	0.7783782346246503	0.841559335146544	1.4362192304759414
0.3206528687500002	0.767160864111908	0.8584067283811814	1.4225916134516547
0.31556948125000117	0.7566382810616729	0.8779072434778846	1.4038003155661578
0.3104148874999999	0.7468808196665945	0.8969823560030464	1.3825951194718489
0.3051880968750001	0.7381086006240423	0.9121952888527002	1.3633300164502737
0.29988809062500027	0.7302755728301288	0.921670008632049	1.3493374085556522
0.2945138468749994	0.7231643364712051	0.925323002175341	1.34139313363538
0.28906433437500006	0.7168474837166764	0.9235362567862897	1.3377832970119534
0.2835384781249999	0.7119610768707731	0.9171593856622815	1.3357602593790212
0.27793522187500025	0.7095643576921087	0.9084950619198391	1.3332984891549173
0.2722534843750002	0.7100279575481204	0.9008411989159281	1.3287877830650388
0.26649215624999945	0.7122673629532663	0.8961849649328262	1.3195930103884181
0.26065013437499934	0.7143985486517548	0.8938012161782696	1.303296796619759
0.2547262812499995	0.7148683298859133	0.8910873158201726	1.2808162885200636
0.24871944687499994	0.7132757609617886	0.8853175324700565	1.2574956837817761
0.24262847812499932	0.7100593936864651	0.8747653800663827	1.2394956943702615
0.23645219062500059	0.7060174241372946	0.8581790350619029	1.2303072716604115
0.23018939062499996	0.70186376063836	0.8362593521280038	1.2300382518397297
0.22383886874999995	0.6976133084547673	0.8158418551916872	1.2349824537676128
0.2173993906249998	0.6927830861694152	0.8046618686109932	1.2395239096257942
0.21086971874999982	0.6870783112513064	0.8008131249499865	1.2398889931309462
0.20424858125000028	0.6806594735162264	0.7983495041456766	1.2347890550855183
0.1975346999999993	0.6745441709163241	0.7949626321648047	1.2239413247306041
0.19072677203125016	0.6703580288457409	0.7916904221807067	1.2078969523162275
0.18382349062500009	0.6695411585287938	0.7900506734676109	1.1886123801820212
0.1768235124999999	0.6722419906627694	0.789234330672551	1.1677463243619344
0.1697254874999997	0.6763291612479376	0.7842627624218474	1.1447157605808336
0.16252803125000032	0.6785357888774782	0.7700745809645702	1.1207648839750133
0.15522976562500024	0.677057808942301	0.7503683116088996	1.0992954055236004
0.14782927187500008	0.6721881790563577	0.7339033036592848	1.0805786103675123
0.14032511875000012	0.6656052752365482	0.7252144160536779	1.0608830442325277
0.13271585312499953	0.658853004040971	0.7238371827203981	1.0363126913064884
0.12500000000000008	0.6531524672781355	0.7273712106396313	1.0060240085772587
0.11805555499999976	0.6487293741164327	0.730833153515207	0.9749924319812097
0.1111111112499997	0.6458563094040831	0.73098707705932	0.9486152767018272
0.1041666662500002	0.6438072422092292	0.7255803839879474	0.9280394319484887
0.09722222250000022	0.6416303000204631	0.7153622229300887	0.9153740032762206
0.09027777749999989	0.6380148004937914	0.702347494768721	0.9115804685699427
0.0833333337499999	0.6326664641614363	0.6881258579455276	0.9149230603095714
0.07638888875000027	0.6263713982113142	0.6735610000022475	0.9206711191830119
0.06944444500000004	0.6199172793731372	0.6593313490025153	0.9242778890769728
0.06250000000000004	0.613054143451961	0.646246197310436	0.9244689880921659
0.05555555499999981	0.6048848973380345	0.6353610328409501	0.9227313038427883
0.04861111125000011	0.5949436701322662	0.6273820787828618	0.9208667335186912
0.041666666249999915	0.5837857042677651	0.6212173888977199	0.9199089733912617
0.03472222250000002	0.5727559848043078	0.6141175178836703	0.9198456062046366
0.027777777499999906	0.5632526612024185	0.604091797023048	0.9192383535674988
0.02083333374999994	0.556082763888466	0.5917183004625144	0.9160681467265489
0.013888888749999953	0.5512694942823693	0.5794792069313801	0.9098702199421244
0.006944446656250006	0.5483528066219996	0.5697731715822484	0.9028183701717708
0.0	0.5395285645993332	0.5684447426859871	0.9153766971750552
