0.5000000000000003	0.0024125826949679906	0.09856036226145326	0.13709736384480986
0.49742875625000194	0.0029941686619829157	0.09190311742213456	0.14902233100323065
0.49482149687500077	0.02164080319176198	0.23707632217539548	0.4484439854082449
0.49217771875000144	0.051240348810360485	0.3585920913726762	0.7542990679375087
0.4894969062499981	0.08806390071569913	0.4651249740145676	1.0640712186189774
0.48677854687499983	0.12870302530661784	0.5605847674451977	1.3720270547176212
0.48402210937500056	0.17021420317945063	0.6424935165687622	1.670680123184514
0.48122705937499843	0.2101036813961632	0.707441622455511	1.950571413361077
0.47839286562500044	0.24696967435962966	0.7599941551794542	2.2016071680691662
0.4755189656249995	0.2810286828509632	0.8098056414463621	2.4154947055796945
0.47260480937499916	0.31355801365468267	0.8602803879280679	2.583198485858755
0.46964983750000083	0.3455588833651164	0.907089279522567	2.6961143551818596
0.4666534749999997	0.37720622439553286	0.9465271884847275	2.757679930899965
0.4636151437500017	0.40763538530519944	0.9811781710751879	2.785713467607559
0.460534253124999	0.4354698330236679	1.0163161975628991	2.797843622300083
0.45741020937500093	0.4606005528495391	1.051438826828087	2.800363316783562
0.4542424000000002	0.48463366495268934	1.0798938607879731	2.7911446072967547
0.45103022812499977	0.5094500057637619	1.0975590514680933	2.7677036698731903
0.4477730562500009	0.535727448678574	1.1061855416827717	2.7321523775331973
0.44447025937500095	0.5621124278894208	1.1091464267549593	2.6899029798571292
0.441121206249999	0.5861070208177908	1.1081711594788575	2.6449291019204972
0.43772524062499985	0.6056970416370233	1.103540707827983	2.597128663352668
0.43428169999999944	0.6202871341216328	1.0966276648352924	2.5438164708196482
0.43078993437500107	0.6302902627556748	1.0921132294678806	2.4825210257193584
0.42724925312500034	0.6366012842923384	1.0948902581688151	2.4133266836033487
0.42365897499999994	0.6408996477054841	1.1035937383351797	2.341025270870773
0.4200184156249997	0.6459121280702697	1.1117518942459037	2.273541939935149
0.4163268562499999	0.6540892538830588	1.1163964559732087	2.2145799948241107
0.4125835906249998	0.6662420218093066	1.1202431672026958	2.1607958879265787
0.408787890625	0.6812079580339456	1.1247659933689584	2.1082183460018573
0.404939028125	0.6964931322810667	1.1267347026690835	2.058123499661129
0.4010362531249997	0.7098772762187966	1.1218805897746829	2.015290680465914
0.3970788062500005	0.7197126369381306	1.1073964401830039	1.9811986106774095
0.39306592812500063	0.7255774508616344	1.0832228016364056	1.95108149600614
0.38899684687499964	0.7275818655532291	1.0550703675156825	1.9197015116120089
0.3848707656249999	0.7262350156206105	1.0314640008911684	1.8869073360347668
0.3806868874999992	0.7228080671923331	1.0163908133119637	1.855830034587578
0.37644440312499916	0.7185256936153542	1.009690387453146	1.828109743634364
0.3721424968749993	0.7138300999468944	1.0093636348416186	1.8011585905239764
0.36778033749999917	0.7088942850982288	1.0100732346150154	1.7690072537972352
0.36335707500000036	0.7045698287594259	1.0079517763120505	1.7285658107272777
0.3588718499999999	0.7019883700628639	1.0053452013031177	1.6841955238197635
0.3543238000000003	0.7017043006878696	1.006556246605668	1.6444368685248654
0.34971204687499996	0.7034365435635617	1.0117276215254025	1.6151476601661996
0.34503569687500074	0.7064301992138954	1.0168759361597053	1.5960726897841595
0.3402938437500005	0.7100589244576693	1.0178630861088622	1.5833510643434225
0.33548557187500094	0.7143418828664846	1.0128823199124624	1.5729500510841843
0.33060994687499945	0.7199485484775227	1.0033669802483776	1.5612074240719842
0.32566603124999943	0.7271545784931702	0.9920416339234432	1.5446445621338125
0.3206528687500002	0.7351409613039642	0.9797821313106542	1.5206278634553496
0.31556948125000117	0.7419935134858751	0.9660374357519818	1.4904761624822667
0.3104148874999999	0.7456294021151204	0.9515949786206795	1.460331107483767
0.3051880968750001	0.7464786364811139	0.9372322232652505	1.4344201086964283
0.29988809062500027	0.7472873236481187	0.9214483084343417	1.4107739293731172
0.2945138468749994	0.7495139823323379	0.9042090996572516	1.3868773221858657
0.28906433437500006	0.752979729466705	0.8856035946176749	1.3622854678759326
0.2835384781249999	0.7570447196914958	0.864319381735347	1.3366480099334364
0.27793522187500025	0.7608124007640814	0.8412817051401772	1.309656181150542
0.2722534843750002	0.7629803193898502	0.8222103191740675	1.2851160764561318
0.26649215624999945	0.7616370762200593	0.8124405922639829	1.271241222741692
0.26065013437499934	0.7558663794759858	0.8104246327731435	1.2691732613884963
0.2547262812499995	0.7478116211787414	0.8098390151712724	1.270909372360331
0.24871944687499994	0.7405065080390762	0.8065541112881287	1.2718640257925544
0.24262847812499932	0.7348108410166202	0.8003233760535501	1.271931727499063
0.23645219062500059	0.7296459592821463	0.7925490542670568	1.2692611966135716
0.23018939062499996	0.7230734667347095	0.7851679309814108	1.2614855131293483
0.22383886874999995	0.7143292165893182	0.7782727792856063	1.2490614490900664
0.2173993906249998	0.7048758502905198	0.7692712795076984	1.233112145048333
0.21086971874999982	0.6964544903227675	0.7549670873887627	1.2139468919440188
0.20424858125000028	0.689505328917566	0.7346351115205623	1.193220348930771
0.1975346999999993	0.6831415515595006	0.7110769911125862	1.1720482981238187
0.19072677203125016	0.6755679857989462	0.6874765510039546	1.1465773070753797
0.18382349062500009	0.6654808799604018	0.6651687300546687	1.111847841877744
0.1768235124999999	0.652968698710267	0.6462646971689919	1.0695476629896778
0.1697254874999997	0.6391016113342874	0.6351736254283599	1.0284623262644392
0.16252803125000032	0.62500803401355	0.6352005618927455	0.9955504911228532
0.15522976562500024	0.6114152264232672	0.6451599858427522	0.970951303550979
0.14782927187500008	0.5984837329245388	0.661111061312879	0.9539883143121588
0.14032511875000012	0.5857845889883554	0.6781310968035098	0.9436876865431761
0.13271585312499953	0.5742790858186726	0.6910327480191233	0.9367874026060259
0.12500000000000008	0.5657409596485562	0.6955819643360623	0.9268574967762503
0.11805555499999976	0.5601106077463661	0.6903143492728849	0.9073957487059964
0.1111111112499997	0.5561143767458431	0.6817033568940317	0.8797737833248717
0.1041666662500002	0.5527394697721957	0.6705760223375364	0.8437583784022732
0.09722222250000022	0.548726772697914	0.6561868662339785	0.8017446952003798
0.09027777749999989	0.5428962271585034	0.6390661755500879	0.7572040255939256
0.0833333337499999	0.5346482457061787	0.6214322857877446	0.7144202776534946
0.07638888875000027	0.5244150325726985	0.6052918847542472	0.6750718759223587
0.06944444500000004	0.5133957328888044	0.5907801176573206	0.6394879610863264
0.06250000000000004	0.5029946676565019	0.5770569187002506	0.6086091080915454
0.05555555499999981	0.49480256912805437	0.563919944108363	0.5810400571191692
0.04861111125000011	0.49015386370813885	0.5519350220520923	0.554188713838601
0.041666666249999915	0.48917464103113373	0.5417203356248532	0.528583913027264
0.03472222250000002	0.4907402689366224	0.5329798875686104	0.5068248354553431
0.027777777499999906	0.493425872714933	0.5249919045439614	0.49009824588262196
0.02083333374999994	0.4961582386797548	0.5178963257587146	0.4778911322799583
0.013888888749999953	0.4983112182878037	0.5120730804093956	0.4694847405214991
0.006944446656250006	0.4996451888855142	0.5074361756502713	0.46437413111565773
0.0	0.42953259473466837	0.5412462986424682	0.4632221727880972
