0.5000000000000003	0.0015378119143365401	0.09104560784089916	0.13106308480614492
0.49742875625000194	0.0015603151435411636	0.08879548285741175	0.12198834952999643
0.49482149687500077	0.01278766923901828	0.22227299618502866	0.3616257347505657
0.49217771875000144	0.03221854580211357	0.3313063850156736	0.5978687002776617
0.4894969062499981	0.057328484848084664	0.4237714257710772	0.8294830956188585
0.48677854687499983	0.08587051789189326	0.5033567024705095	1.0533285793824723
0.48402210937500056	0.11607335018018101	0.5729074976215148	1.26276304024225
0.48122705937499843	0.14677490071675436	0.6352983071960175	1.4487472956710794
0.47839286562500044	0.1773047141401152	0.6926164192276697	1.6039007352353865
0.4755189656249995	0.2071267512791182	0.7456858950723605	1.7248019015772647
0.47260480937499916	0.2357688187196385	0.7948397450719712	1.8111963176364643
0.46964983750000083	0.2627464378528308	0.8405839955697538	1.8655533241048206
0.4666534749999997	0.28711642222514927	0.8828952060889478	1.8930713599328692
0.4636151437500017	0.30742926844633556	0.9198493767577682	1.9002973231744416
0.460534253124999	0.3225441377765244	0.9483071627526695	1.8936674472425188
0.45741020937500093	0.33296126572502194	0.9668996628543955	1.8792951886287834
0.4542424000000002	0.34134291678765283	0.97720671111123	1.8624260160885358
0.45103022812499977	0.351108492504122	0.9813839804520134	1.8462134136994945
0.4477730562500009	0.3648248670047891	0.9802514037704827	1.8311992565149113
0.44447025937500095	0.3835155988931947	0.9741571719899164	1.8158717217736964
0.441121206249999	0.4068622852253087	0.964327836405464	1.7982445821880808
0.43772524062499985	0.43373035788709635	0.9533386141409669	1.778046303965684
0.43428169999999944	0.46275451902160586	0.9452871766643747	1.7572505415032584
0.43078993437500107	0.49247092258865743	0.9438695792494322	1.7372686589667783
0.42724925312500034	0.5215627759480068	0.9482773134561273	1.7160606114952475
0.42365897499999994	0.5494038425527398	0.9534245891505138	1.6896616954370849
0.4200184156249997	0.5755861954740659	0.9555148160918082	1.656379449741447
0.4163268562499999	0.5992302306136593	0.9546687340267651	1.6186790518398482
0.4125835906249998	0.6195123027519506	0.9524203973359485	1.5818962638360414
0.408787890625	0.6363153953334039	0.9491395201847665	1.5517939675085488
0.404939028125	0.6505152353838882	0.9444079440927032	1.5327709088147066
0.4010362531249997	0.663443548747051	0.9381778966078628	1.5260580119747422
0.3970788062500005	0.6760855271399562	0.9311341444081763	1.528706742101466
0.39306592812500063	0.6886352059259297	0.9240228591955503	1.5340151353247964
0.38899684687499964	0.7006414121225417	0.9168824781329986	1.5343584994494865
0.3848707656249999	0.7116344576788514	0.9093964040549382	1.5256794458489094
0.3806868874999992	0.7214345334423439	0.9020963283330335	1.510067417060333
0.37644440312499916	0.7305260358398918	0.897141146916912	1.493797730348919
0.3721424968749993	0.7397572516845952	0.8973345384451502	1.4826123120314827
0.36778033749999917	0.7498280250735904	0.9039222834573737	1.4793144147611885
0.36335707500000036	0.7607759144080144	0.9157645161698295	1.4838875150370252
0.3588718499999999	0.7720241782002719	0.9306268586255727	1.4935105715163846
0.3543238000000003	0.7826846750715442	0.9465568954815806	1.5033088046831504
0.34971204687499996	0.7921303912200528	0.9618337538144935	1.5089465533434334
0.34503569687500074	0.8003349619939082	0.9743882876544372	1.5083781515770687
0.3402938437500005	0.8074539305490044	0.9820021954630668	1.499907967426471
0.33548557187500094	0.8135224649641017	0.9830078220526176	1.4817597193717225
0.33060994687499945	0.8184622497799665	0.9767242377428004	1.4550069965012686
0.32566603124999943	0.8221388627538189	0.963549036061516	1.425061448800712
0.3206528687500002	0.824534409664706	0.9461828896687854	1.3987767495887191
0.31556948125000117	0.8256890925158428	0.9298765952085327	1.3803258751494123
0.3104148874999999	0.8251590369267051	0.9187887577042403	1.3695945135128105
0.3051880968750001	0.8222737012761193	0.9133845916051622	1.3627496258255516
0.29988809062500027	0.8170786949295782	0.9125568565499028	1.3543685191156043
0.2945138468749994	0.8106908350922312	0.9155563584195019	1.3417665466187056
0.28906433437500006	0.8044586107155204	0.9205333826284203	1.3266035307044344
0.2835384781249999	0.7991543572865328	0.9229846110011889	1.3104479422174184
0.27793522187500025	0.7948732174337446	0.9197214534883746	1.2921990898248314
0.2722534843750002	0.7914610711449986	0.9132277064155234	1.2715803811692448
0.26649215624999945	0.7887658174922462	0.9085521092365686	1.2511936874248664
0.26065013437499934	0.7867841280171618	0.9091137610685581	1.2335497760036973
0.2547262812499995	0.785697290032476	0.9151267479216746	1.2191161928124183
0.24871944687499994	0.7859273602332372	0.9228146171951883	1.2066343597422542
0.24262847812499932	0.7877347042578602	0.9272013308161647	1.1930160546249842
0.23645219062500059	0.790971024196548	0.9258160769257093	1.1744729033067782
0.23018939062499996	0.7950643773699255	0.9200085464701069	1.150107163777912
0.22383886874999995	0.7984808313180605	0.9129891081703674	1.1225027587021232
0.2173993906249998	0.7995873225963495	0.9070560758395173	1.0955364706356585
0.21086971874999982	0.798351984632429	0.9036152970067773	1.07332415749491
0.20424858125000028	0.7959871385487393	0.9020390455015892	1.0570465452460946
0.1975346999999993	0.7939673729262223	0.8984292166288287	1.0408052340675797
0.19072677203125016	0.792616400411335	0.888739645394256	1.0183606652109323
0.18382349062500009	0.7910175188221668	0.872697067518982	0.9884656484048752
0.1768235124999999	0.7879324663311512	0.8549823962617742	0.9588202219924982
0.1697254874999997	0.7825441186619078	0.8394351872446078	0.9444297786842455
0.16252803125000032	0.7755757104012422	0.8244098519509045	0.9483540078042499
0.15522976562500024	0.7683843761350554	0.8079705074724568	0.9616553444412524
0.14782927187500008	0.7618702272416028	0.7917090821530351	0.9750054635233202
0.14032511875000012	0.7562436164993926	0.7793088420207708	0.9818579982514108
0.13271585312499953	0.7506742271201917	0.7734968915152619	0.9787930957245186
0.12500000000000008	0.7434795259015702	0.7746430196210139	0.9669432179187242
0.11805555499999976	0.7340702439755576	0.7789218965687605	0.9503212953862638
0.1111111112499997	0.7239673352932697	0.7831129137585524	0.9323425193732136
0.1041666662500002	0.7135830005557594	0.7855175210816169	0.9116548430953763
0.09722222250000022	0.7038204773270177	0.7868164516973757	0.8885126171480986
0.09027777749999989	0.6951289638364739	0.7873584993167574	0.8651605298810813
0.0833333337499999	0.687706344237871	0.7855395309298302	0.8444868815406782
0.07638888875000027	0.6813502358968877	0.7784336249979358	0.8277251471914365
0.06944444500000004	0.6757615770665889	0.7636144697070967	0.8140487638749716
0.06250000000000004	0.6702513827937032	0.7407302733123104	0.8015687642707249
0.05555555499999981	0.6636390020374106	0.7115651772058952	0.7889427711592851
0.04861111125000011	0.6546851745354308	0.679432057297006	0.7771130245558248
0.041666666249999915	0.6427096496724897	0.6488297576203418	0.7692200514971813
0.03472222250000002	0.6278873952306796	0.6240453091767861	0.7677396232573578
0.027777777499999906	0.6114259577426372	0.6068509716909227	0.7718095200168736
0.02083333374999994	0.5955065423208078	0.5959818781014867	0.7788285318976336
0.013888888749999953	0.5825795229720232	0.5891264512737926	0.7869512109510828
0.006944446656250006	0.5745157391416191	0.5843110358771694	0.794009770455696
0.0	0.6150082888592314	0.5413223783445407	0.7919580585584589
