0.5000000000000003	0.0016584655737408357	0.08225727220171061	0.22888020747921622
0.49742875625000194	0.001567336569665634	0.10209909517000203	0.21966787467595744
0.49482149687500077	0.012886029148888731	0.2610352540523693	0.6620178350859571
0.49217771875000144	0.03317235248987142	0.3826260115633221	1.099534731918601
0.4894969062499981	0.06055995350965019	0.47276325351471143	1.511225009431201
0.48677854687499983	0.09299008800371764	0.5390837899177419	1.8772891294705112
0.48402210937500056	0.12865120973216732	0.5917112980154862	2.1861681402398214
0.48122705937499843	0.16607058142259587	0.64025351663765	2.434315598939557
0.47839286562500044	0.20396608494736593	0.6897753898519177	2.623249060136365
0.4755189656249995	0.24138231905910623	0.7409140852200479	2.757962014822094
0.47260480937499916	0.27794578187609215	0.7919974033971533	2.8464582880841167
0.46964983750000083	0.3135202742398322	0.8401583718296585	2.898514139996548
0.4666534749999997	0.34787953341745986	0.8822994176749471	2.922956584638523
0.4636151437500017	0.38077428679738273	0.9163823713570046	2.92512730336425
0.460534253124999	0.4119989865965651	0.9418503160193453	2.906418006496633
0.45741020937500093	0.441503955760874	0.9587100261600089	2.8669218812127806
0.4542424000000002	0.4693879760692259	0.9667398386345993	2.8095333365498054
0.45103022812499977	0.49581181756215603	0.9658159864434106	2.7408388547290343
0.4477730562500009	0.5209098256907531	0.9568407660218023	2.6679311183858956
0.44447025937500095	0.5446920781902891	0.9421051884486469	2.5958129046361007
0.441121206249999	0.5672287238456815	0.9245518732572601	2.5279939925750767
0.43772524062499985	0.588926630069442	0.9072445957804695	2.46796066689684
0.43428169999999944	0.6102984272575593	0.8945599003025764	2.4182135687281603
0.43078993437500107	0.6316816922633292	0.8916910766128815	2.3787375904802746
0.42724925312500034	0.653128855607407	0.9006159486333168	2.347624341517365
0.42365897499999994	0.6744474520056245	0.9177742339384852	2.32163250451349
0.4200184156249997	0.695197835421372	0.9365206791650883	2.2958938084988656
0.4163268562499999	0.7155234752975377	0.9517357608055979	2.2654263338248493
0.4125835906249998	0.7362198374965074	0.9628537455996066	2.226752034738093
0.408787890625	0.7577841343340961	0.9735988140983254	2.1787585490155044
0.404939028125	0.7797388054656071	0.9887593359991728	2.124226159998852
0.4010362531249997	0.8013294320225244	1.0106041506707555	2.069398031929019
0.3970788062500005	0.8221673718805979	1.0370426451981993	2.0193783061596142
0.39306592812500063	0.8419457634492615	1.0632953802999445	1.974843903965691
0.38899684687499964	0.8598698174259	1.0855132384311021	1.933536655932296
0.3848707656249999	0.8749124536596533	1.1013383056107204	1.893284018229265
0.3806868874999992	0.8867034643135424	1.1087439560362877	1.8528157417815125
0.37644440312499916	0.895556678745996	1.1082684137698913	1.8104565503202363
0.3721424968749993	0.901487538381808	1.1052398313690128	1.7634180477655335
0.36778033749999917	0.9043214498713905	1.1045659396547864	1.7094764352268912
0.36335707500000036	0.904320687428212	1.1031545297672891	1.6492052440931353
0.3588718499999999	0.9021959597199884	1.0944082449141614	1.586694259010708
0.3543238000000003	0.8990516533831313	1.0776403088802256	1.5273931657814968
0.34971204687499996	0.8960591128832356	1.058152649613522	1.4748511776126723
0.34503569687500074	0.8933757900468394	1.0410973406930655	1.4287694095056744
0.3402938437500005	0.8902900891417802	1.027308920359783	1.385960536631186
0.33548557187500094	0.8861214946398733	1.014309104237084	1.3435253357008652
0.33060994687499945	0.8805023558902666	1.0001404630472555	1.3022328640501846
0.32566603124999943	0.8728494144476486	0.9843962037401466	1.264757188957373
0.3206528687500002	0.8626117619905573	0.9679976872808419	1.2311832982279145
0.31556948125000117	0.8500851558993883	0.9531272112501707	1.2010520199751185
0.3104148874999999	0.8358270995960946	0.941266830693133	1.1759626925099054
0.3051880968750001	0.8203992421059365	0.9310226331219565	1.154964479407547
0.29988809062500027	0.8047900337775955	0.9205914921852736	1.134599887848554
0.2945138468749994	0.7902136038645553	0.9103322790132046	1.1162664609027175
0.28906433437500006	0.7777631668940443	0.901074492204208	1.1049955728390521
0.2835384781249999	0.7680131358452833	0.8931641973273063	1.1024765374535355
0.27793522187500025	0.7606996391394657	0.8864934606694223	1.1056709719045188
0.2722534843750002	0.7550870314208762	0.8802437692648476	1.109559604072384
0.26649215624999945	0.7500728868551698	0.8738313544114227	1.1090258299272429
0.26065013437499934	0.7443526626728423	0.8682761932560897	1.1002828139038934
0.2547262812499995	0.7370004910015272	0.8648099813363828	1.0821292154201316
0.24871944687499994	0.7278040899394369	0.8625035525757203	1.059609077561164
0.24262847812499932	0.7178184815271601	0.8610998891309459	1.0446270474036718
0.23645219062500059	0.708445078166941	0.8629771940437791	1.0428491600047967
0.23018939062499996	0.6991948549970027	0.8664087734188962	1.0489891053184695
0.22383886874999995	0.6889951261937795	0.8650215270028353	1.0550145705347451
0.2173993906249998	0.6793280580454181	0.8556549993208079	1.059641448063374
0.21086971874999982	0.6715881101063769	0.8398775389879707	1.066487642404033
0.20424858125000028	0.6656710936737006	0.821142364556205	1.0721128126461636
0.1975346999999993	0.6619121384932463	0.8031289235492272	1.074319837501798
0.19072677203125016	0.6599692121455143	0.7872610210255591	1.0728585123466277
0.18382349062500009	0.6580825082436895	0.7733253861428696	1.0677823524017978
0.1768235124999999	0.6551315091868589	0.7616770658169234	1.0599202026463892
0.1697254874999997	0.6513376859761448	0.7537142227023024	1.049014710732408
0.16252803125000032	0.6471691051635462	0.7514835128736285	1.0348429323920796
0.15522976562500024	0.6422932607884337	0.7555771538285351	1.0187856653329999
0.14782927187500008	0.6357341223950099	0.763329877099099	1.0015212746084228
0.14032511875000012	0.6271397340417221	0.7707774835741009	0.9816232672212407
0.13271585312499953	0.6190491787969257	0.7750626008376669	0.9579340239929298
0.12500000000000008	0.6148636933265481	0.7750290588342392	0.9275435848121212
0.11805555499999976	0.6143760254296096	0.7714968403782625	0.8895197653800196
0.1111111112499997	0.6145924461076206	0.7673335374985341	0.8489155676907907
0.1041666662500002	0.6149943331191687	0.7601393892043565	0.8074206424654291
0.09722222250000022	0.6160391938182913	0.7459783276600505	0.7693671117030978
0.09027777749999989	0.6186430137806483	0.7245227761505018	0.7372851887681886
0.0833333337499999	0.6226495030943469	0.7024517248861731	0.7119608271380602
0.07638888875000027	0.6273404266039382	0.6876497855563053	0.6924047486738817
0.06944444500000004	0.6319457090844764	0.6829893464456448	0.6792030366986893
0.06250000000000004	0.635988264550313	0.6864567403219956	0.6730601442342163
0.05555555499999981	0.6396439860919562	0.6937430974233734	0.6727308204487753
0.04861111125000011	0.6434650452289107	0.7012175193028584	0.6773208620305375
0.041666666249999915	0.6478768200418122	0.7066070425472804	0.6853821378362922
0.03472222250000002	0.6528793591896445	0.7082405171222886	0.6947597000973899
0.027777777499999906	0.6581060357142577	0.7046346686157152	0.7036395015717996
0.02083333374999994	0.6629069681787324	0.6957465962275613	0.7100992090396548
0.013888888749999953	0.6665151881004516	0.6842978380507088	0.7129768956282633
0.006944446656250006	0.6682396092110174	0.6745575853676888	0.7130790392691964
0.0	0.7514434180818771	0.5494724653453787	0.7110158971234241
