0.5000000000000003	0.0019740901926051818	0.10312091550988552	0.14150393112811374
0.49742875625000194	0.002036707445248996	0.09544447719979963	0.13843766355333795
0.49482149687500077	0.014676730653895962	0.25124344591690756	0.4156152211336955
0.49217771875000144	0.03524250310489423	0.3828259038222139	0.7006203255464455
0.4894969062499981	0.061278342365629776	0.4938304569390156	0.993783712698004
0.48677854687499983	0.09075060479763206	0.5859837062888049	1.2900061985953721
0.48402210937500056	0.12230680569923827	0.6620373805380061	1.5803778659286822
0.48122705937499843	0.15497638666390903	0.7257346472976786	1.8518964273156895
0.47839286562500044	0.1880174456339875	0.7790352102836305	2.0864385854465954
0.4755189656249995	0.22094239880085634	0.8216828448804564	2.2686193122542266
0.47260480937499916	0.253131586428794	0.853741495142794	2.3967919557000834
0.46964983750000083	0.2840295273153146	0.8778192022810588	2.479643597760329
0.4666534749999997	0.31402344799279186	0.8992895641330727	2.525415336974215
0.4636151437500017	0.3443602716892328	0.9226875897120206	2.5396547416055206
0.460534253124999	0.3762141177497965	0.9469195586738623	2.5302737852120494
0.45741020937500093	0.4095514959647813	0.9666105082602048	2.5098635530775124
0.4542424000000002	0.4423485780056773	0.9787990234719693	2.490596065939598
0.45103022812499977	0.4719008488151009	0.9862664118298692	2.4782091236947035
0.4477730562500009	0.497615584119612	0.9949896068718651	2.4711363650938436
0.44447025937500095	0.5215365659637005	1.008979928471978	2.4634488435921624
0.441121206249999	0.5460791934587808	1.0260982431010508	2.450115482131515
0.43772524062499985	0.5720319756881528	1.039253832569622	2.4312988665173854
0.43428169999999944	0.5990353659288294	1.0430259013540364	2.4120330941816475
0.43078993437500107	0.6270073296158429	1.0381706220964126	2.3986801125391826
0.42724925312500034	0.6564293053180146	1.0293549186836621	2.3942111615521156
0.42365897499999994	0.6872725866305659	1.0203389333474404	2.3944283789955976
0.4200184156249997	0.718496405301577	1.0131976062933479	2.390539561595763
0.4163268562499999	0.7486358236234226	1.010092477423043	2.37719744760508
0.4125835906249998	0.7765507237790483	1.0123761873802886	2.3578463958306934
0.408787890625	0.8017470247695588	1.0188864034954648	2.3410376502408616
0.404939028125	0.8242492579275156	1.0276271126768453	2.3306044732850046
0.4010362531249997	0.8447138344414804	1.0378228616390914	2.3220228598460007
0.3970788062500005	0.8639420448018	1.0500286977371225	2.3081307275650556
0.39306592812500063	0.8821584028345676	1.0647699323684567	2.282990816589344
0.38899684687499964	0.8992503980294455	1.0811531638797403	2.2406220556032856
0.3848707656249999	0.9155217303375065	1.0983099019297653	2.1803661346776693
0.3806868874999992	0.9315511495937832	1.1169918297698183	2.12047123305092
0.37644440312499916	0.9477026005063601	1.1371530025422447	2.0771377017403854
0.3721424968749993	0.9634539297145923	1.1582269544475268	2.040570507655459
0.36778033749999917	0.977279901510427	1.180078215903264	2.0046069739661454
0.36335707500000036	0.9875720384026797	1.1996001370757943	1.9671247930216704
0.3588718499999999	0.9937012013508078	1.2125678638570356	1.9289856972494137
0.3543238000000003	0.995431807858157	1.2162713643954477	1.8953452996680036
0.34971204687499996	0.9928047704161423	1.2128800302951863	1.8658289814808917
0.34503569687500074	0.9867239980049857	1.2096892353085298	1.834525281255115
0.3402938437500005	0.9789295092231253	1.2117170726758206	1.8015388608990497
0.33548557187500094	0.9711719503211514	1.2163434811073701	1.77128680110625
0.33060994687499945	0.9643634587871476	1.2189747446961503	1.7387984423446359
0.32566603124999943	0.9582252840912263	1.218370392309243	1.6944024765308632
0.3206528687500002	0.9522572268419062	1.2130579964086519	1.6389920272870218
0.31556948125000117	0.946208974955139	1.2005965844790942	1.5856619947140804
0.3104148874999999	0.9391769833088279	1.1807814360048254	1.5465325386146833
0.3051880968750001	0.9320724690838221	1.1535791108781137	1.5151058137997793
0.29988809062500027	0.927582634238057	1.1184576204901022	1.4808754975503289
0.2945138468749994	0.9252182784850951	1.0784686445450788	1.4505833340606284
0.28906433437500006	0.9226158349163305	1.0397619644417395	1.4247073126716128
0.2835384781249999	0.9191128268834533	1.0072051867172311	1.393823752475376
0.27793522187500025	0.9149553853306361	0.9810688472712215	1.361710936053903
0.2722534843750002	0.9099172172740327	0.9611077572826117	1.3383746121857374
0.26649215624999945	0.9039752029780322	0.9495884193139903	1.3225860585423737
0.26065013437499934	0.897803322962893	0.9468326442502328	1.311107788925094
0.2547262812499995	0.8931619104010695	0.9483333909241687	1.3045049839110514
0.24871944687499994	0.891939360391174	0.9500749638892582	1.3025970352606184
0.24262847812499932	0.8949362606359891	0.9526160136163072	1.3028099565440077
0.23645219062500059	0.9006027621684118	0.957025651106234	1.3035717659431971
0.23018939062499996	0.9053037461070309	0.9615620130761159	1.3000833077228673
0.22383886874999995	0.9065637939023317	0.9638236472785133	1.2835429870707806
0.2173993906249998	0.903188864387814	0.9615040656742322	1.2519881817712537
0.21086971874999982	0.8938682355242566	0.9516364922531374	1.2120671211791123
0.20424858125000028	0.8788408061720074	0.9316196964141726	1.1746093320863091
0.1975346999999993	0.8604707304335616	0.905045284431622	1.1445689258081306
0.19072677203125016	0.8413949763163557	0.8832083943161056	1.114775000766602
0.18382349062500009	0.8235722407209911	0.8715873934582294	1.0746085380142707
0.1768235124999999	0.8072164483431766	0.8673403503880024	1.0166787201221248
0.1697254874999997	0.7906419489449081	0.8626319923600668	0.9450741693806104
0.16252803125000032	0.7709282779199323	0.8505760075991847	0.8750820122036587
0.15522976562500024	0.7474809184292993	0.8330332865373637	0.8179897759437162
0.14782927187500008	0.7227792923642395	0.815610394595989	0.7793053886980067
0.14032511875000012	0.6990877272828956	0.8007837403435318	0.7583293634032544
0.13271585312499953	0.678640935335434	0.7884772283398486	0.7509062425658694
0.12500000000000008	0.6638835454796769	0.7777811605006509	0.7510475949054801
0.11805555499999976	0.6561122592271939	0.769126420747282	0.7519134076824199
0.1111111112499997	0.6532474302639988	0.7629003749287164	0.7514064195444223
0.1041666662500002	0.6530066361425031	0.7564623208472907	0.7512106595489983
0.09722222250000022	0.6536647545244378	0.7482059685832748	0.7533937400836767
0.09027777749999989	0.6546431162464652	0.7377164959585589	0.7572597956410232
0.0833333337499999	0.6555666965202632	0.7250065604692858	0.7612939502865437
0.07638888875000027	0.6560697334634816	0.7098243173446775	0.7650588827886902
0.06944444500000004	0.6553989900844791	0.6926224162579565	0.7685278852384912
0.06250000000000004	0.65273113431743	0.6749167782181635	0.7707820660953122
0.05555555499999981	0.6478550378104033	0.6580778770812362	0.7703993601924931
0.04861111125000011	0.6411375222379302	0.6426878232427206	0.7672643289847583
0.041666666249999915	0.6329020799214289	0.6288721440817119	0.7634158927423416
0.03472222250000002	0.6232424761589487	0.6164070442624586	0.7621930697891703
0.027777777499999906	0.6125287617181745	0.6053021411592057	0.7665822076548742
0.02083333374999994	0.6018239341759843	0.5964181946101031	0.7774286073088711
0.013888888749999953	0.5927389931709827	0.5902461223666814	0.7922331108733484
0.006944446656250006	0.5867930780948689	0.5859116417327825	0.8054050368792096
0.0	0.6409707656267114	0.5157646267334551	0.7996211229228019
