0.5000000000000003	0.001481883253326158	0.07212453203613436	0.17011630457291946
0.49742875625000194	0.0016440285456152245	0.075738066718988	0.18409086102998742
0.49482149687500077	0.013696113618933265	0.19985548075188692	0.551537482938421
0.49217771875000144	0.03467360904004424	0.30503186767148976	0.9135089273950098
0.4894969062499981	0.06186438248815023	0.39582921374922536	1.2578772665751983
0.48677854687499983	0.09271732431349983	0.4751012422092342	1.5729332217489436
0.48402210937500056	0.12520765713264798	0.5440124075648206	1.850915857800543
0.48122705937499843	0.15801432293976364	0.6019155572677446	2.0886170264201
0.47839286562500044	0.19062850464203188	0.6470578077660456	2.2858108326223334
0.4755189656249995	0.2230295495811319	0.6787443624687162	2.4426557401782545
0.47260480937499916	0.25538736984460697	0.6996074354903035	2.5578790270720053
0.46964983750000083	0.28822990079884864	0.7146836148303907	2.6316707971984754
0.4666534749999997	0.32212925843281603	0.7269886355132292	2.670589618747391
0.4636151437500017	0.3567709150617073	0.7361516776909924	2.685377254084459
0.460534253124999	0.3908780450840239	0.7432082417390592	2.6842515055760603
0.45741020937500093	0.423235112178105	0.753629193659338	2.670282021788142
0.4542424000000002	0.4535106749044643	0.773806464397527	2.6428891579687637
0.45103022812499977	0.48218350692340184	0.8067248758270588	2.601074787298298
0.4477730562500009	0.5100373391506605	0.8508422767159287	2.546829485331285
0.44447025937500095	0.5373042601889821	0.9013890237229225	2.485558674631305
0.441121206249999	0.5631809134070946	0.9533405243314984	2.422842890753159
0.43772524062499985	0.5861984032657818	1.0032070643166462	2.361545972914673
0.43428169999999944	0.605445329032248	1.0478334197138126	2.3020936864159425
0.43078993437500107	0.6211641808659526	1.0831199189907184	2.244654616702002
0.42724925312500034	0.634647955882275	1.105067337538104	2.1903991627433523
0.42365897499999994	0.647490339761605	1.1119834664140131	2.14068422369513
0.4200184156249997	0.6605418087054332	1.1056332347838893	2.0955982573758924
0.4163268562499999	0.6735061639073217	1.0904987864540956	2.053493641159667
0.4125835906249998	0.6850916157830208	1.0726060475040462	2.011966537596234
0.408787890625	0.6938438855210639	1.0577594872704974	1.9696784188646832
0.404939028125	0.6992568783574828	1.047897194045661	1.9274794277231828
0.4010362531249997	0.702178505015524	1.0415287996766074	1.8873446064540098
0.3970788062500005	0.7040818485849493	1.0389712524866894	1.8495723169070728
0.39306592812500063	0.7059081797172524	1.041340888082477	1.811811558843125
0.38899684687499964	0.7083501735178336	1.0475964748925528	1.7724933428755285
0.3848707656249999	0.7122045982985385	1.0555966068020255	1.7333923508266034
0.3806868874999992	0.7180865884980068	1.0636678818661771	1.6949389116419247
0.37644440312499916	0.7259035753482708	1.0713878144812492	1.6549346324574814
0.3721424968749993	0.734867781261763	1.079379345764189	1.6137752211630962
0.36778033749999917	0.7440590387665242	1.0875571047884796	1.5761135158520099
0.36335707500000036	0.7526556916386229	1.094175027225054	1.5470097899945636
0.3588718499999999	0.7597254917826366	1.097461528063842	1.5266930894325879
0.3543238000000003	0.7646711274569684	1.0968907907642906	1.5094426315717475
0.34971204687499996	0.7678169531664147	1.0929293589796587	1.4888929664366115
0.34503569687500074	0.7701506962169713	1.0867179079774598	1.4627248238128636
0.3402938437500005	0.772848903962456	1.0801411794290974	1.4312310161885675
0.33548557187500094	0.7765481963128357	1.0759255569635573	1.394162322436593
0.33060994687499945	0.7810465001064112	1.077021140384939	1.3516151960975908
0.32566603124999943	0.7852141355931043	1.0855991119582666	1.306225285546099
0.3206528687500002	0.7873744637618414	1.1005014185365956	1.2619089172080664
0.31556948125000117	0.7868037450305572	1.114999081467968	1.2217497274607634
0.3104148874999999	0.7844419088665123	1.1216550730436945	1.187827964886239
0.3051880968750001	0.7819950265150909	1.1181497645767926	1.1618215220675323
0.29988809062500027	0.7807600876666219	1.1057505124736107	1.1457230226021238
0.2945138468749994	0.7816202730332791	1.085704640963328	1.1406065275297312
0.28906433437500006	0.7855692008183411	1.0596147766785315	1.145285282330414
0.2835384781249999	0.7929406106209516	1.031511423589569	1.157661681791926
0.27793522187500025	0.8024863385813553	1.007494620896157	1.1745247758576152
0.2722534843750002	0.8115302601072459	0.9923095152774447	1.1909635406929877
0.26649215624999945	0.8173620605470778	0.9859260651519433	1.2028447129254662
0.26065013437499934	0.8191745470454019	0.9833721128404632	1.209985499562095
0.2547262812499995	0.81800705214018	0.978717347279029	1.2164127817579862
0.24871944687499994	0.8146361640672146	0.9693557564664607	1.2267822974834868
0.24262847812499932	0.8093247730692799	0.9549103117257347	1.2436872885982095
0.23645219062500059	0.8026683037449012	0.9339926599883315	1.2661623326153777
0.23018939062499996	0.7947165657593194	0.906408535405479	1.2907001818966883
0.22383886874999995	0.7847583641065644	0.876518676050509	1.3148759345978194
0.2173993906249998	0.772154535193281	0.849841907079092	1.3360141063363968
0.21086971874999982	0.7571949089969848	0.8290722360698386	1.347989894861515
0.20424858125000028	0.7413276285290852	0.8153747224676986	1.3471774987868872
0.1975346999999993	0.726212544035434	0.8090065678666953	1.3385585518831817
0.19072677203125016	0.7126358942156545	0.8075211915584108	1.3286018134457374
0.18382349062500009	0.7004932777326165	0.8054828038169394	1.31842016189674
0.1768235124999999	0.6894466915241976	0.7987831855704467	1.3044540994220741
0.1697254874999997	0.6797881552026381	0.7888492708824372	1.2794245711924175
0.16252803125000032	0.6728526404226279	0.7794026860959833	1.2383747577633164
0.15522976562500024	0.6697298019018105	0.7710444826199178	1.1863942775578014
0.14782927187500008	0.6700651724204413	0.7619000019704432	1.1350464043304558
0.14032511875000012	0.6726083580769451	0.7517650721021233	1.0923109312445756
0.13271585312499953	0.6764489663332985	0.7416270041395453	1.0592231653814548
0.12500000000000008	0.6811895859517528	0.7320873015806024	1.0307686008348458
0.11805555499999976	0.685983848664913	0.7237725520463606	1.0041953184977832
0.1111111112499997	0.6903652939105697	0.7180613000102183	0.9810578700345406
0.1041666662500002	0.6947770162727774	0.7143771421269165	0.9606480222770148
0.09722222250000022	0.699129277357003	0.714231304227965	0.9412880391802932
0.09027777749999989	0.7035286180556206	0.7191368273266042	0.9178471744797964
0.0833333337499999	0.7083117622372191	0.7289119257537187	0.8857377899401538
0.07638888875000027	0.7134060595991886	0.741122728536309	0.8456813787399969
0.06944444500000004	0.7179384765266815	0.7519507190789907	0.8046471050868299
0.06250000000000004	0.7207526897668077	0.7575285089062456	0.769731691001035
0.05555555499999981	0.7212780065357919	0.7570614100534796	0.7403560614488047
0.04861111125000011	0.7196074136223501	0.7528492540111794	0.7114982145539992
0.041666666249999915	0.7163118988008474	0.7463983790035624	0.6813984554568832
0.03472222250000002	0.7119149322532365	0.7381344342854537	0.6515373838001213
0.027777777499999906	0.7064952139865454	0.7277590919567973	0.6235253616426704
0.02083333374999994	0.6999427068294456	0.7143230074452523	0.5987639512434554
0.013888888749999953	0.6926255502358788	0.6984199443419719	0.5787267369312564
0.006944446656250006	0.6851447866648303	0.6832233726364126	0.5643861942953667
0.0	0.7292936761361511	0.5583748017674306	0.5658731233911038
