0.5000000000000003	0.0024388043411491833	0.12731721770153562	0.1801452285108878
0.49742875625000194	0.0024811398952122045	0.12190719446973156	0.1987508666802065
0.49482149687500077	0.017850634880401527	0.30951215432012963	0.5986656761347449
0.49217771875000144	0.043989396512917986	0.4473970104586439	0.9956445455782088
0.4894969062499981	0.07816797998568689	0.5424268521115229	1.366770360254131
0.48677854687499983	0.11682442449709918	0.6086449240861697	1.6928736303713794
0.48402210937500056	0.15650373525115402	0.6657784921947169	1.9651690245123414
0.48122705937499843	0.195524686281039	0.7284924803938903	2.1803459866349053
0.47839286562500044	0.23414566256496902	0.7969373005179056	2.340779861826278
0.4755189656249995	0.2729120777476458	0.8610510245568802	2.4523191280127543
0.47260480937499916	0.3119179247104871	0.910436620108868	2.519378809771795
0.46964983750000083	0.35049718061332946	0.9417398848417589	2.546860116988443
0.4666534749999997	0.38724240660793574	0.9605742872277865	2.542634582324844
0.4636151437500017	0.42082096451877715	0.9756476197811661	2.513740192067857
0.460534253124999	0.45143305654684734	0.9908494128859137	2.464253221936368
0.45741020937500093	0.4809059705508402	1.0040805807463384	2.39870075733806
0.4542424000000002	0.510053380938213	1.011658379893539	2.3233725717089637
0.45103022812499977	0.5373446078638286	1.009631462051624	2.244794066970526
0.4477730562500009	0.5610061177561709	0.9948647791045915	2.169700197639678
0.44447025937500095	0.5806909148807121	0.9696574680034878	2.1043763765474153
0.441121206249999	0.5973855712140836	0.941699740250999	2.053499072064178
0.43772524062499985	0.6126112896161613	0.9182059665498308	2.0183191213123037
0.43428169999999944	0.6276550012574662	0.9012126782224412	1.9943821722706736
0.43078993437500107	0.6433484498598355	0.8882985009952855	1.9727453917666167
0.42724925312500034	0.6598543007919505	0.8773790864272234	1.9457821691204997
0.42365897499999994	0.6769385030803953	0.8687388632666831	1.9120681685812702
0.4200184156249997	0.6945488681393512	0.8628621571214521	1.8759394330290964
0.4163268562499999	0.7129820745268178	0.8596087125830529	1.8434938329547295
0.4125835906249998	0.7324898491236109	0.8586998692585575	1.8187680525313938
0.408787890625	0.7527462177786062	0.8591385443782067	1.8025159817647038
0.404939028125	0.7729000655367233	0.8592001642114773	1.792969415446862
0.4010362531249997	0.7922312558044198	0.8581298100810659	1.787122290253292
0.3970788062500005	0.8104649843739574	0.8566342668897564	1.7814633378538889
0.39306592812500063	0.8274368265921354	0.8556527057354738	1.7730034143505675
0.38899684687499964	0.8428570685165027	0.8551887299860612	1.7601511954898756
0.3848707656249999	0.8565392759751458	0.8544349622329541	1.743322801022446
0.3806868874999992	0.8684332471320981	0.852994358280098	1.725017261634143
0.37644440312499916	0.8784827480973857	0.8514845615402418	1.7086886397353243
0.3721424968749993	0.8866956171072335	0.8505601416511942	1.6963450228888957
0.36778033749999917	0.8932478500242347	0.8506973774498203	1.687768717603147
0.36335707500000036	0.8984791510298374	0.8522229534705488	1.6816071420754046
0.3588718499999999	0.9028545648684333	0.8541647505745658	1.67580291381705
0.3543238000000003	0.9069302863175719	0.8538630536210662	1.6685962639425853
0.34971204687499996	0.9107008027110169	0.8488705477005322	1.6602558672547545
0.34503569687500074	0.9132562552621534	0.8390174757988949	1.6524748065688468
0.3402938437500005	0.9133769203351345	0.8266648114532759	1.645641505874885
0.33548557187500094	0.9101576995216846	0.81606907592046	1.6384441828001968
0.33060994687499945	0.9037542032526954	0.8111929601312121	1.6302481484483156
0.32566603124999943	0.8951293777258109	0.8124072876929271	1.6220963860068922
0.3206528687500002	0.8851967725535882	0.8165807996544745	1.6152446316078297
0.31556948125000117	0.8749266543170445	0.8207585552096638	1.6094739157567224
0.3104148874999999	0.8653474430420365	0.8249920735575801	1.6027254547134566
0.3051880968750001	0.857080336256363	0.8313524252270903	1.5919012809936044
0.29988809062500027	0.8501225708951785	0.8396103113547438	1.5751854728180665
0.2945138468749994	0.844953981499664	0.8447438893344777	1.556479210425849
0.28906433437500006	0.8428792638195536	0.8421879068954397	1.5438106355147894
0.2835384781249999	0.8439930676289008	0.8338211080706714	1.5350779261098542
0.27793522187500025	0.8465862896431621	0.8247477281355331	1.521340516802113
0.2722534843750002	0.8488023871279671	0.8192302334509781	1.5005891104892453
0.26649215624999945	0.8494798683206344	0.8193969095742979	1.4763834039183805
0.26065013437499934	0.8482324882336375	0.8240397349960362	1.4519866775907018
0.2547262812499995	0.8457149765668791	0.8292074344427628	1.4281250473805591
0.24871944687499994	0.8434624770400796	0.8312752045024772	1.4032386664189496
0.24262847812499932	0.8421784742168366	0.8287380085529308	1.3741038853512686
0.23645219062500059	0.8406918413702755	0.8227085414477058	1.3399086057669691
0.23018939062499996	0.8378990084886059	0.8178536445314908	1.3036438821547107
0.22383886874999995	0.83410106815248	0.8191338011743232	1.2695223877990707
0.2173993906249998	0.8295640431476886	0.826346869805547	1.24238705665429
0.21086971874999982	0.8243126106161881	0.8346431819488406	1.2234421985793527
0.20424858125000028	0.8191111720309731	0.8411524951566468	1.2087191934293906
0.1975346999999993	0.8148654319257242	0.8459506953168616	1.1948966093685458
0.19072677203125016	0.8123442170008075	0.8478818954959203	1.1827425277317916
0.18382349062500009	0.8120218194854409	0.8452084179243642	1.175724586700376
0.1768235124999999	0.8134604432520532	0.8388509239211082	1.1729908975096246
0.1697254874999997	0.8154762637246441	0.8314199770251526	1.1669218350588346
0.16252803125000032	0.8164889187738256	0.8244252132134791	1.1507830426698238
0.15522976562500024	0.814932679117327	0.8174619445022664	1.1235349201027207
0.14782927187500008	0.8097388753346774	0.8088802159858416	1.0890877635193699
0.14032511875000012	0.8011735594460537	0.7973722959760222	1.0533589698718613
0.13271585312499953	0.7900303473310086	0.7827937491150894	1.0193100911783883
0.12500000000000008	0.7786700980202614	0.7663887380511848	0.9876777765559512
0.11805555499999976	0.7687644474470949	0.7507340434020885	0.9604742267940463
0.1111111112499997	0.7605071013096647	0.7372254846519491	0.9377583843487619
0.1041666662500002	0.752291470437897	0.7217182665901897	0.9134510197550753
0.09722222250000022	0.7432151239613309	0.703137927588254	0.8850684758722203
0.09027777749999989	0.7335225736511302	0.6835882212859883	0.854057068904902
0.0833333337499999	0.7245613934952594	0.6664642858408719	0.8226844883862104
0.07638888875000027	0.7175837678046186	0.6540927449805489	0.7927720434859762
0.06944444500000004	0.7127281446074676	0.6471266564759067	0.766986050453471
0.06250000000000004	0.708939895396402	0.6444162574114698	0.7477065917319923
0.05555555499999981	0.7048135090702682	0.6440167849207135	0.7340198225773492
0.04861111125000011	0.6995237284421751	0.6447818462077491	0.722199312788703
0.041666666249999915	0.6931480585252947	0.6473022783661049	0.7093811961662831
0.03472222250000002	0.6861570654568968	0.6533465629724496	0.6957057874382739
0.027777777499999906	0.6789904352043581	0.6630929700713295	0.6826575106872346
0.02083333374999994	0.6723684569128332	0.6738927416552818	0.6719923516843123
0.013888888749999953	0.6672763013591342	0.6826110096988012	0.6658457029170263
0.006944446656250006	0.6643848298663604	0.68722062346114	0.6646562529875816
0.0	0.6560587058593665	0.6675848138093062	0.6620068732803379
