0.5000000000000003	0.0018262237629487444	0.0878304193244822	0.1754711499826388
0.49742875625000194	0.0019356419066261204	0.08571412357216728	0.16898444507918292
0.49482149687500077	0.014844175392599494	0.22933932987633815	0.5132338628368718
0.49217771875000144	0.03610070525530362	0.35199856615961034	0.8724242742223017
0.4894969062499981	0.06259071072852371	0.4567889901911516	1.240685653036337
0.48677854687499983	0.09169719071680507	0.5453362852970295	1.602528599038245
0.48402210937500056	0.1217202589940031	0.6166378610585929	1.9401162929915583
0.48122705937499843	0.15170430399883433	0.6673025431590361	2.2401726599728
0.47839286562500044	0.1815710635383049	0.6959418344317337	2.4922182105842516
0.4755189656249995	0.2122685882986933	0.7075490455048706	2.687038839413409
0.47260480937499916	0.24484552300342524	0.7119504153376947	2.8209500868124864
0.46964983750000083	0.2793308798232719	0.7174016037380375	2.898212848528171
0.4666534749999997	0.3151381555500294	0.7269622905397574	2.928163772981877
0.4636151437500017	0.35195620336294037	0.7401174597588818	2.9221948564045386
0.460534253124999	0.38901454941502445	0.7557527744732916	2.8918054870633094
0.45741020937500093	0.42478706199532407	0.774297833217596	2.8458369735934834
0.4542424000000002	0.45822475070209917	0.797652411884065	2.789624461840283
0.45103022812499977	0.4894508930241562	0.8267349053595251	2.7273215565337092
0.4477730562500009	0.5192110644507123	0.859389216951706	2.6634697508888334
0.44447025937500095	0.5480967192168076	0.8906574850877886	2.602187931804738
0.441121206249999	0.576229824563898	0.9150751378599673	2.545562209850075
0.43772524062499985	0.6034842361277838	0.9299002928465797	2.4931838797131594
0.43428169999999944	0.6298515145526123	0.9364565263640077	2.4437335462154435
0.43078993437500107	0.6555344426133544	0.9383497721739587	2.3964048593603215
0.42724925312500034	0.6804964044353458	0.9388440204381165	2.35074153104735
0.42365897499999994	0.7042902125477376	0.9395016154248838	2.3065629470468254
0.4200184156249997	0.7259944973991834	0.9406803999528807	2.264379323957174
0.4163268562499999	0.7445972709076609	0.9428891087014251	2.2247659999349887
0.4125835906249998	0.759504148875867	0.9462454896762749	2.1872334127652944
0.408787890625	0.7707778828299843	0.9490400960673089	2.1499234273797576
0.404939028125	0.7789587804535753	0.9493150502488611	2.1109957799697936
0.4010362531249997	0.7846841319033031	0.9477654387590918	2.070317776467953
0.3970788062500005	0.7891378807827675	0.9473911542272546	2.0291316913407518
0.39306592812500063	0.7940101874690112	0.9510461601315777	1.9883464720195942
0.38899684687499964	0.8008017289242119	0.9604593830298223	1.947418465793154
0.3848707656249999	0.8101148278814174	0.9759835221207593	1.9042612681708089
0.3806868874999992	0.8216969869978551	0.9965846266008974	1.8565598846646485
0.37644440312499916	0.8352665015501278	1.020867903802667	1.8036923298945056
0.3721424968749993	0.8503662869974471	1.0465956728772658	1.7475480719892544
0.36778033749999917	0.8656089552271834	1.0675643543669464	1.6924548351155175
0.36335707500000036	0.8795183205753588	1.0778915112539436	1.6440948222829748
0.3588718499999999	0.8913986571719998	1.0804769855337233	1.6054057368374655
0.3543238000000003	0.9009024373669994	1.0799997269942336	1.574392363822902
0.34971204687499996	0.9076490481245816	1.0751479174858025	1.5468505401372084
0.34503569687500074	0.9110918061285328	1.0613471366604703	1.520119295147604
0.3402938437500005	0.9110063630501004	1.0354662160456667	1.4936713321532182
0.33548557187500094	0.9080884285366916	0.9992216599788568	1.4692498379674999
0.33060994687499945	0.9036626021828874	0.9599879624148606	1.4495683242136548
0.32566603124999943	0.8989501360384037	0.9266806753047185	1.4347169345391064
0.3206528687500002	0.8943275518138922	0.9048193248813985	1.4221840865499107
0.31556948125000117	0.889258122091412	0.8945471116408659	1.4113234774104095
0.3104148874999999	0.8822711047489197	0.8927719358249737	1.4040643299880868
0.3051880968750001	0.871492391940226	0.8954291169841129	1.4002055621442187
0.29988809062500027	0.856184986597714	0.8975846006252526	1.3935375943821229
0.2945138468749994	0.8380200657984217	0.8948932389517609	1.3781125717613991
0.28906433437500006	0.8206206526867653	0.8874170950004198	1.3542673374829133
0.2835384781249999	0.8071108525442884	0.8807485593222381	1.319612093284728
0.27793522187500025	0.7979841771383346	0.880338106266502	1.270838925715363
0.2722534843750002	0.7912869372394318	0.8861423146753366	1.2142283278105708
0.26649215624999945	0.7843495538935925	0.8951336886699629	1.1618762732393106
0.26065013437499934	0.7754834642608402	0.9059049089868982	1.1224770131422872
0.2547262812499995	0.7647287007304158	0.9186394991261665	1.0990287275625192
0.24871944687499994	0.7536331961424818	0.931387160269587	1.0891806009384626
0.24262847812499932	0.7440173722809266	0.9397528275483364	1.0862683087800498
0.23645219062500059	0.7368095362047893	0.9410697987933943	1.084614444893167
0.23018939062499996	0.7318192413060118	0.9353521003558637	1.0821263763236935
0.22383886874999995	0.7282846462121133	0.922808410892655	1.0781241938799813
0.2173993906249998	0.725661330667618	0.9033271574204168	1.0709136447073782
0.21086971874999982	0.7240907500950234	0.8776198288427278	1.0584128434546944
0.20424858125000028	0.7246035059630452	0.8486357848697211	1.0404721720714893
0.1975346999999993	0.7270126652142392	0.8209970854030721	1.0188391734711864
0.19072677203125016	0.7282551372929896	0.7987248555515412	0.9964593496109737
0.18382349062500009	0.726151463220869	0.7846352716587385	0.9758410497213337
0.1768235124999999	0.7226041975576564	0.7787222318748349	0.9550514896404542
0.1697254874999997	0.7202822849805508	0.7792628084038291	0.9303634249675005
0.16252803125000032	0.7194515508942879	0.7864981445509218	0.9025351846073794
0.15522976562500024	0.7190008351605219	0.7993265346015443	0.8734314705982852
0.14782927187500008	0.7179667355670282	0.8103032171894201	0.8416184179150789
0.14032511875000012	0.71499937903137	0.8108932940470537	0.8085039580594164
0.13271585312499953	0.7111725512198587	0.8016845230007673	0.7804801315842071
0.12500000000000008	0.7086311442358165	0.7889636572570483	0.7618066193642348
0.11805555499999976	0.7073908904791835	0.776487648853275	0.7504054555126424
0.1111111112499997	0.7065040944239557	0.764798320186334	0.7423026650527104
0.1041666662500002	0.705382859516852	0.7516109114880514	0.7351616670730534
0.09722222250000022	0.703653698645324	0.7371668869574214	0.7289533775530906
0.09027777749999989	0.7004841485538235	0.7218718512315143	0.7245916802891998
0.0833333337499999	0.6950453099388164	0.7060568854021376	0.7252128267007606
0.07638888875000027	0.6872249518501287	0.6918245390678229	0.7354214090002759
0.06944444500000004	0.6774542777539918	0.682876105439412	0.7565928630099035
0.06250000000000004	0.666567577063651	0.6785000779241436	0.7823180277936395
0.05555555499999981	0.655438874858521	0.670325626898204	0.8027978518928062
0.04861111125000011	0.6444183123536826	0.6516163797203314	0.8153166734446832
0.041666666249999915	0.6334679642959938	0.6268705617176188	0.8251386520861503
0.03472222250000002	0.6229416611929312	0.6051586648036777	0.8342028100198369
0.027777777499999906	0.6135745014968188	0.5906843275609137	0.8393093385805892
0.02083333374999994	0.606046887232701	0.5832537025013659	0.8394578358245454
0.013888888749999953	0.6005289521176388	0.580504469291148	0.8378334770357997
0.006944446656250006	0.5961902142091745	0.5800930271796224	0.8378216317632134
0.0	0.5289858078468022	0.6220619895821865	0.846153050179446
