0.5000000000000003	0.0023364218983437986	0.08399834195735151	0.21194452873553524
0.49742875625000194	0.0018780173255857643	0.08472438844601013	0.2064333586775215
0.49482149687500077	0.015034000253206926	0.21530426582167736	0.6262333641396586
0.49217771875000144	0.03773879259455037	0.3202645633989832	1.0538616874985323
0.4894969062499981	0.06750422620791827	0.4057027022816495	1.4740687462383535
0.48677854687499983	0.10200317287265682	0.475670825646226	1.8653717313442322
0.48402210937500056	0.13949354471734043	0.5352185422781583	2.205577720282129
0.48122705937499843	0.1788890760640018	0.592381373354638	2.4783038670640485
0.47839286562500044	0.21951143523417732	0.6528032888790313	2.6797236382882437
0.4755189656249995	0.26094017939167014	0.7136641564873226	2.817349556239047
0.47260480937499916	0.3023173729998161	0.7679956115626675	2.902804272576952
0.46964983750000083	0.34284505790768843	0.8130923238986837	2.9475068914619196
0.4666534749999997	0.3825135699107886	0.850651056357646	2.9622565994223886
0.4636151437500017	0.42146582257960713	0.881552142399699	2.956951470475169
0.460534253124999	0.4590309313850111	0.9042879440679581	2.9387240013694274
0.45741020937500093	0.4943315030341298	0.9184807431460379	2.910070284028931
0.4542424000000002	0.5269725455427072	0.9280248733056585	2.8695802333114724
0.45103022812499977	0.5571678144792216	0.9390510835346213	2.815815985946645
0.4477730562500009	0.5856162641831502	0.9543403829389138	2.7501750185649234
0.44447025937500095	0.6127591867268398	0.9715505925850048	2.6753257923306464
0.441121206249999	0.6382880064386333	0.9878078888854919	2.5923189136257547
0.43772524062499985	0.6615242552037381	1.0031189634772688	2.50273549610949
0.43428169999999944	0.6821585822283921	1.0182569901188239	2.4123259793006375
0.43078993437500107	0.7006106249518865	1.0324954735621066	2.325590101779687
0.42724925312500034	0.7180699517207519	1.045436728521865	2.2419766932422354
0.42365897499999994	0.7361244857162978	1.0591102537772674	2.1649146084486834
0.4200184156249997	0.7561203730715523	1.0759103384176454	2.105239199511239
0.4163268562499999	0.7791859091998442	1.0949174142728662	2.068547160554724
0.4125835906249998	0.8060183518388468	1.1120698066089119	2.0436684810992496
0.408787890625	0.8359182504482255	1.123903626077121	2.0128109456337975
0.404939028125	0.8666129977504891	1.1300142488291474	1.9698778912802763
0.4010362531249997	0.8953924701107938	1.1332200379753365	1.9199904016445877
0.3970788062500005	0.9203944203229261	1.138808236377111	1.868856150198258
0.39306592812500063	0.9413594678533854	1.1523700132870347	1.8184727480667817
0.38899684687499964	0.9587310029964629	1.1755118106443023	1.7707375779251555
0.3848707656249999	0.9725319176027563	1.2043306562323157	1.7303795241968116
0.3806868874999992	0.9821750715256093	1.2340726604876016	1.7024271873156052
0.37644440312499916	0.987111916650015	1.2615518233769831	1.6886167029169346
0.3721424968749993	0.9876006206396732	1.2836743077477906	1.6860198996969564
0.36778033749999917	0.9846212642284607	1.2976106006782273	1.6881047271210046
0.36335707500000036	0.9796585379221425	1.3019367965914506	1.6873985614081788
0.3588718499999999	0.9742812751055936	1.2973886348976775	1.6791622815091511
0.3543238000000003	0.9698153123231417	1.286289855344052	1.6662496327133496
0.34971204687499996	0.9673882404659374	1.2719301123008815	1.6599276303639094
0.34503569687500074	0.9678870311172282	1.258199127408284	1.6687543451730151
0.3402938437500005	0.972033871993224	1.2482703987866415	1.6886503238006039
0.33548557187500094	0.9802333151548771	1.243889537340695	1.7089844054145773
0.33060994687499945	0.992691144455569	1.2454196389597796	1.7226831498668553
0.32566603124999943	1.0094135117036769	1.2503420906999134	1.7300556282970032
0.3206528687500002	1.029200851216472	1.2543614961889384	1.73324375748174
0.31556948125000117	1.0497907488341798	1.256265355015101	1.7280630322601094
0.3104148874999999	1.0689582769961692	1.2579074399382852	1.7066036935684572
0.3051880968750001	1.0847949631751679	1.2605415372111255	1.6669273339064077
0.29988809062500027	1.0948911613178267	1.2623982511651843	1.6167668763176026
0.2945138468749994	1.0965254418734658	1.2555073575886688	1.5675307465150712
0.28906433437500006	1.0892696578855952	1.2311524196562935	1.5263266660610095
0.2835384781249999	1.0752441709622913	1.1898895324455987	1.494921184272937
0.27793522187500025	1.0576805377232177	1.1388853053990766	1.4741024227062185
0.2722534843750002	1.0391188324812863	1.0885486367857065	1.4593870844452097
0.26649215624999945	1.0213387960183218	1.0490204953615692	1.4420273249106066
0.26065013437499934	1.0053032324751716	1.023168249691155	1.4206868597060474
0.2547262812499995	0.9911964108429588	1.007599633166021	1.3992727389978694
0.24871944687499994	0.9791350168592373	0.9981055171745884	1.377191133950828
0.24262847812499932	0.9691325530289546	0.9920267960782446	1.3480063404392626
0.23645219062500059	0.9605109032961019	0.9880913110400328	1.309359722071645
0.23018939062499996	0.9519948128093854	0.9850694968454023	1.2709161804034392
0.22383886874999995	0.9416608089637442	0.9802267390755589	1.2468436814782264
0.2173993906249998	0.9274252269966591	0.9702897790574617	1.2397100487406394
0.21086971874999982	0.9092916639374988	0.9551886676442746	1.2393990064465146
0.20424858125000028	0.8895931883132694	0.9379922489942943	1.2344318917183736
0.1975346999999993	0.8701969942282012	0.9220833041166654	1.2201974739075416
0.19072677203125016	0.8513830745253743	0.910836405325803	1.202675485251594
0.18382349062500009	0.8335024297176656	0.9044235846088566	1.1926975348158044
0.1768235124999999	0.8171384047652	0.898575367277448	1.19347048565693
0.1697254874999997	0.8017104212665727	0.8870722680581672	1.193170045426749
0.16252803125000032	0.786846200488831	0.8678526313187488	1.1784934045035385
0.15522976562500024	0.7728222644273185	0.8423484713834025	1.147097542865139
0.14782927187500008	0.7594763563085338	0.8114105350720531	1.1066968714840852
0.14032511875000012	0.7455169483835326	0.7824398435243491	1.066897968502984
0.13271585312499953	0.7289619340132919	0.7623629206595333	1.0327911572664794
0.12500000000000008	0.709367557364776	0.75091053588307	1.0079353548868841
0.11805555499999976	0.6889872918272864	0.74465893429962	0.9899650594306221
0.1111111112499997	0.6713496147288661	0.7405948268902611	0.9723204726868176
0.1041666662500002	0.6586613895183886	0.7368662793389466	0.9478707043807838
0.09722222250000022	0.6524241499569889	0.7346070649559148	0.917734262652032
0.09027777749999989	0.6518380271153251	0.7307978036044811	0.890680152716793
0.0833333337499999	0.6549977905386425	0.7219737609485963	0.8727570803152342
0.07638888875000027	0.6601061138360383	0.7081446021991887	0.863148673427393
0.06944444500000004	0.6659785708874535	0.6925194783771792	0.8583003761571615
0.06250000000000004	0.6720837539295039	0.6792980098338238	0.8537144937235789
0.05555555499999981	0.6780672166722312	0.6719013574057433	0.8437815714938881
0.04861111125000011	0.6834601319153956	0.6719261796225033	0.8250547133306699
0.041666666249999915	0.6876094305972095	0.6784216587978664	0.7993290333831875
0.03472222250000002	0.6901308777603972	0.6884402360216464	0.7717496527979627
0.027777777499999906	0.6913298813275494	0.6986622052281406	0.7475939036505941
0.02083333374999994	0.6919353198926894	0.7067376809690255	0.7305864055185659
0.013888888749999953	0.692730361320458	0.712057432476142	0.7214495465050256
0.006944446656250006	0.6941734699919265	0.7146375321417149	0.7178644903313126
0.0	0.7099983380602546	0.6643110443024344	0.7108528030440024
