0.5000000000000003	0.0028626978000495656	0.13742192435417278	0.21518844405346993
0.49742875625000194	0.0025530000897802958	0.11192324194929422	0.22210634359710493
0.49482149687500077	0.019143392659623015	0.29011913180922	0.6597156641904436
0.49217771875000144	0.04677303160053043	0.43683975684708365	1.0952367089663488
0.4894969062499981	0.08151718909676335	0.5594071442344523	1.5157498857725298
0.48677854687499983	0.12031448846746244	0.6632889715906622	1.90149121036942
0.48402210937500056	0.16161742596147732	0.7513894592272456	2.2366341981068443
0.48122705937499843	0.20483821475484965	0.8238190923613874	2.5151266617451067
0.47839286562500044	0.24941224102734585	0.8803380911030998	2.7373042510534877
0.4755189656249995	0.2941885435286827	0.9233321977110279	2.904697799235198
0.47260480937499916	0.3375645248124338	0.9587778649132985	3.019169400284507
0.46964983750000083	0.3781714194503733	0.9939307777614302	3.086281518044147
0.4666534749999997	0.41587083112903145	1.0317692188239849	3.117828654495062
0.4636151437500017	0.45222954411696054	1.0665863822940236	3.127397029272968
0.460534253124999	0.4892607107575091	1.0890559128703605	3.1242351724626323
0.45741020937500093	0.5281732378051281	1.0945814130790243	3.1128528213863613
0.4542424000000002	0.5693004448743966	1.0858978517800477	3.0953634710872513
0.45103022812499977	0.6122714594430064	1.0708827375539012	3.0731055778009493
0.4477730562500009	0.6558978682404552	1.0572008471684464	3.04670468432948
0.44447025937500095	0.6988722446738832	1.047896637971933	3.015074826586294
0.441121206249999	0.7402347014174913	1.0415012187105668	2.9757555257417123
0.43772524062499985	0.7794332638792812	1.0347005991355047	2.9264667356623844
0.43428169999999944	0.8161665954853483	1.025175630185499	2.8660288847672493
0.43078993437500107	0.8502101286291419	1.0130264215240727	2.7945116886399726
0.42724925312500034	0.8814240350244181	1.0001307392776422	2.7131916826763667
0.42365897499999994	0.9099518460075677	0.9892281728650091	2.624831647924886
0.4200184156249997	0.935879537150377	0.9837747598660828	2.5334745045342073
0.4163268562499999	0.9587831800536467	0.9878844590347282	2.4431370532491954
0.4125835906249998	0.9778669932628188	1.0049393899174655	2.356547467653392
0.408787890625	0.9926855652931835	1.0355561991964903	2.2752675906586135
0.404939028125	1.0033913974735749	1.0766139972166426	2.2004797140455956
0.4010362531249997	1.0107875794304855	1.122150236643702	2.133226054256422
0.3970788062500005	1.0163506650957799	1.1654389541530157	2.0741614450241834
0.39306592812500063	1.021519533271365	1.2013801334502179	2.0228601575655207
0.38899684687499964	1.0270947204561087	1.2280580753818244	1.9781369553653176
0.3848707656249999	1.0329904359545068	1.2464824946928752	1.9389090071871409
0.3806868874999992	1.0379933007721376	1.2584470810738106	1.9033326207313337
0.37644440312499916	1.040419190244496	1.264233543259717	1.8676129261705388
0.3721424968749993	1.0390641992245018	1.2631040968014886	1.8297448993181333
0.36778033749999917	1.0333907342218247	1.254422004826843	1.7924306464923068
0.36335707500000036	1.0239123224264541	1.2388453242555404	1.7605067471180644
0.3588718499999999	1.01170751856881	1.220146749328063	1.739751440191505
0.3543238000000003	0.9978373127737618	1.2030505684932105	1.7367142838296412
0.34971204687499996	0.9833457868111856	1.1894018227530545	1.7531894351545327
0.34503569687500074	0.9692206864524056	1.1792634576100736	1.7819690400833252
0.3402938437500005	0.9566174856569356	1.1719117441719542	1.8033141974272333
0.33548557187500094	0.9466428364038605	1.1648332832027049	1.780619568150525
0.33060994687499945	0.9378950784970672	1.1553669885643387	1.7172499039499474
0.32566603124999943	0.9271498841531427	1.142489048571851	1.666234247792267
0.3206528687500002	0.9137856672446709	1.1271822938016327	1.641722799687808
0.31556948125000117	0.8999704275619709	1.1142330030303698	1.6290724606093099
0.3104148874999999	0.887900275204146	1.10640605698861	1.616443446502089
0.3051880968750001	0.8785550039439134	1.1002894108352652	1.5999380469150197
0.29988809062500027	0.8715504072959738	1.0921148703758208	1.5804787306582169
0.2945138468749994	0.8653197782946785	1.0805070124569263	1.5617305224299762
0.28906433437500006	0.8590848071745345	1.0687702676776902	1.5477025275496121
0.2835384781249999	0.8539537242222697	1.0626978523947395	1.5418435697001134
0.27793522187500025	0.8520045984491562	1.063496847462298	1.5427352176794558
0.2722534843750002	0.8548300206427434	1.0687243140675595	1.5377830798496783
0.26649215624999945	0.8615371657887373	1.0776833182944592	1.5190999676800885
0.26065013437499934	0.8684963155252614	1.0891948795256943	1.4940259826109565
0.2547262812499995	0.8727248112178334	1.0996986904965704	1.468682561349558
0.24871944687499994	0.8730004537090292	1.10758767548939	1.4412921826069676
0.24262847812499932	0.8692736580517982	1.1145156197759118	1.412284863812213
0.23645219062500059	0.8626565311523722	1.1205840620867293	1.3880117809068333
0.23018939062499996	0.8541485561958007	1.1222012636509249	1.3737537972306455
0.22383886874999995	0.8454914238959675	1.1143455263758242	1.3679113766211743
0.2173993906249998	0.8401545577982449	1.097300386635702	1.3635654016084862
0.21086971874999982	0.8388260260146274	1.0793784737390941	1.3516393153423558
0.20424858125000028	0.838484985342109	1.06533673509664	1.326929275174405
0.1975346999999993	0.8375711850417534	1.0542204565632216	1.2971629243418554
0.19072677203125016	0.8353388570254867	1.0450615265314336	1.2672178851044942
0.18382349062500009	0.8312703457177457	1.0341834122917293	1.2268028254871626
0.1768235124999999	0.8259535161434907	1.0137673187360419	1.1760053373807589
0.1697254874999997	0.8214135551227992	0.9869769388772432	1.130853490681007
0.16252803125000032	0.8168261035596469	0.9627470646645977	1.097851031764639
0.15522976562500024	0.809399572607061	0.9419057090464106	1.0691089413397252
0.14782927187500008	0.8000569669373653	0.919997610791144	1.038345403561999
0.14032511875000012	0.7928400727232935	0.8932987098429229	1.006786889025938
0.13271585312499953	0.7888736149515156	0.8628795793966628	0.9792427263885369
0.12500000000000008	0.7864326519061566	0.8319898926298638	0.9538622284370446
0.11805555499999976	0.7824961630238166	0.8032587021992343	0.9263281500041272
0.1111111112499997	0.7762132950586448	0.7794148682428506	0.8984695662919788
0.1041666662500002	0.767878577531283	0.760132893261416	0.8687640777296111
0.09722222250000022	0.7582584426725986	0.7463385394886682	0.835163847366995
0.09027777749999989	0.748301400559876	0.7372465232900463	0.7965863477474169
0.0833333337499999	0.7382924987865689	0.7310345588121328	0.7546950705070042
0.07638888875000027	0.7281986194224876	0.726446381844049	0.7135897453967514
0.06944444500000004	0.718265767927502	0.7233422314027552	0.6786892968455122
0.06250000000000004	0.708925213973597	0.7217637035913272	0.6538368505616288
0.05555555499999981	0.7005879759709789	0.7213644665425237	0.6390085317303312
0.04861111125000011	0.6934064653561078	0.7215532242268553	0.6309246714966228
0.041666666249999915	0.6873809999415721	0.72102676463545	0.6256577592391308
0.03472222250000002	0.6824237398286249	0.7172814747592442	0.6213823178201336
0.027777777499999906	0.6778184907154932	0.7079856737107086	0.6192574702465226
0.02083333374999994	0.6728441059710665	0.6946546956021941	0.6202208049290536
0.013888888749999953	0.6676926827078032	0.6820054786493887	0.6229537726444154
0.006944446656250006	0.6628147174865393	0.672474394562413	0.6257004053046068
0.0	0.6499779135955167	0.6336463896658143	0.6279454182085913
