0 	0.010732889 	-0.0034741703 	1.0464084
5.5555625e-05 	0.010974179 	-0.010068288 	1.0492672
0.00011111111 	0.012020471 	-0.014220129 	1.0500337
0.00016666667 	0.013228294 	-0.017676384 	1.0489161
0.00022222222 	0.01461818 	-0.020391457 	1.046309
0.00027777778 	0.016376878 	-0.022270043 	1.0427687
0.00033333333 	0.018647532 	-0.023334383 	1.0389413
0.00038888889 	0.021431913 	-0.023704287 	1.035428
0.00044444444 	0.024562923 	-0.02353409 	1.0326518
0.0005 	0.027769838 	-0.022966281 	1.030786
0.00055555556 	0.030785618 	-0.022100646 	1.0297502
0.00061111111 	0.033389696 	-0.020980879 	1.0293194
0.00066666667 	0.035423086 	-0.019577759 	1.0292459
0.00072222222 	0.036817545 	-0.017795578 	1.0293799
0.00077777778 	0.037576181 	-0.015528177 	1.0297154
0.00083333333 	0.037786519 	-0.012707588 	1.0303612
0.00088888889 	0.037586993 	-0.0093660421 	1.0314346
0.00094444444 	0.037133858 	-0.0056860368 	1.0329175
0.001 	0.036724424 	-0.0016041488 	1.0349577
0.0010617199 	0.036421719 	0.0025212383 	1.0370851
0.0011225874 	0.036518766 	0.0061118403 	1.0387746
0.0011826143 	0.036965962 	0.0090034691 	1.039793
0.0012418122 	0.037506098 	0.011288793 	1.0401136
0.0013001926 	0.037839486 	0.013153336 	1.0398798
0.0013577668 	0.037708199 	0.014792171 	1.0393211
0.0014145458 	0.036944491 	0.01630512 	1.0386773
0.0014705407 	0.035501398 	0.017666412 	1.0381821
0.0015257623 	0.033432106 	0.018864115 	1.0380496
0.0015802213 	0.030871 	0.020156338 	1.0385109
0.0016339282 	0.02800958 	0.022174597 	1.0398243
0.0016868934 	0.02505262 	0.025663491 	1.0421851
0.0017391271 	0.02216218 	0.03099053 	1.0455205
0.0017906395 	0.019424837 	0.037865811 	1.0493569
0.0018414404 	0.016805199 	0.045523089 	1.0529745
0.0018915398 	0.014118891 	0.053169862 	1.0558106
0.0019409473 	0.011091604 	0.060340061 	1.0578111
0.0019896725 	0.0075153444 	0.066957203 	1.0594524
0.0020377248 	0.0033566056 	0.073016038 	1.0612983
0.0020851134 	-0.0010900171 	0.078160844 	1.0632077
0.0021318476 	-0.0051694926 	0.08166225 	1.0639604
0.0021779364 	-0.0081852995 	0.082694204 	1.0618626
0.0022233887 	-0.0097750996 	0.080954587 	1.0560572
0.0022682133 	-0.0099189684 	0.07688418 	1.0468804
0.0023124189 	-0.0085646744 	0.071456196 	1.0349599
0.0023560139 	-0.00558232 	0.065836232 	1.0202098
0.0023990069 	-0.00091063715 	0.061099779 	1.0018903
0.0024414062 	0.0052454195 	0.057773132 	0.97944239
0.0024832199 	0.012205735 	0.055611217 	0.95319447
0.0025244562 	0.018892113 	0.053730059 	0.92449072
0.002565123 	0.024207961 	0.05106063 	0.89530906
0.0026052281 	0.027465808 	0.046947858 	0.86753825
0.0026447794 	0.028709563 	0.041546283 	0.84235914
0.0026837845 	0.028672764 	0.035956506 	0.82004083
0.0027222509 	0.028414029 	0.031965065 	0.80015661
0.0027601861 	0.028993322 	0.031230859 	0.78198777
0.0027975974 	0.030856769 	0.034175515 	0.76505397
0.002834492 	0.033498567 	0.039664615 	0.74945391
0.0028708772 	0.035619187 	0.045912764 	0.73553753
0.0029067598 	0.035900209 	0.051783734 	0.72300939
0.0029421469 	0.033905353 	0.056133872 	0.71124581
0.0029770452 	0.030344721 	0.056651682 	0.70034379
0.0030114616 	0.026288529 	0.051345258 	0.69130747
0.0030454028 	0.022244624 	0.040473987 	0.68529911
0.0030788752 	0.018118952 	0.026405286 	0.68299383
0.0031118853 	0.013692888 	0.011971153 	0.68456182
0.0031444395 	0.0088849779 	-0.00090525774 	0.69000919
0.0031765442 	0.0039506474 	-0.011507411 	0.69927556
0.0032082055 	-0.00088476122 	-0.020019495 	0.71211393
0.0032394295 	-0.0056017987 	-0.027004094 	0.72796543
0.0032702223 	-0.010174318 	-0.033055235 	0.74596638
0.0033005899 	-0.014518518 	-0.038606902 	0.76504222
0.0033305381 	-0.018479447 	-0.043868241 	0.78383964
0.0033600727 	-0.021837962 	-0.048818963 	0.80058224
0.0033891994 	-0.024351015 	-0.053228452 	0.81305113
0.0034179239 	-0.025828003 	-0.056710937 	0.8188945
0.0034462517 	-0.026207924 	-0.058855606 	0.81624791
0.0034741882 	-0.025609786 	-0.059420203 	0.80443042
0.003501739 	-0.024322151 	-0.058494365 	0.78433755
0.0035289093 	-0.022717515 	-0.056517766 	0.75822339
0.0035557043 	-0.021123401 	-0.054115849 	0.72890141
0.0035821293 	-0.019721248 	-0.051836914 	0.69877805
0.0036081894 	-0.018522004 	-0.049952595 	0.66921235
0.0036338895 	-0.017415523 	-0.048402653 	0.64041165
0.0036592348 	-0.016251688 	-0.046879339 	0.61173228
0.00368423 	-0.014910829 	-0.044982962 	0.58213099
0.00370888 	-0.013342219 	-0.042377295 	0.55057669
0.0037331896 	-0.011570716 	-0.038898009 	0.51633538
0.0037571635 	-0.0096811494 	-0.034594406 	0.47910615
0.0037808063 	-0.0077914987 	-0.029707126 	0.43901809
0.0038041226 	-0.0060237359 	-0.024599907 	0.39651611
0.0038271169 	-0.0044778029 	-0.019669556 	0.35218371
0.0038497936 	-0.003212553 	-0.015255121 	0.30656946
0.0038721572 	-0.0022369416 	-0.011563245 	0.26008425
0.0038942119 	-0.0015145737 	-0.0086259903 	0.21300366
0.003915962 	-0.00098118085 	-0.0063082183 	0.16555214
0.0039374118 	-0.00057208931 	-0.0043680685 	0.11799231
0.0039585653 	-0.00025427265 	-0.0025626567 	0.070623327
0.0039794267 	-3.9570229e-05 	-0.00078434476 	0.023616025
0.004 	-3.9570229e-05 	-0.00078434476 	0.023616025
