0 	0.062879235 	-0.032915971 	1.0382821
2.0100503e-05 	0.062879235 	-0.032915971 	1.0382821
4.0201005e-05 	0.062879235 	-0.032915971 	1.0382821
6.0301508e-05 	0.044080152 	-0.059671268 	1.0351314
8.040201e-05 	0.044080152 	-0.059671268 	1.0351314
0.00010050251 	0.044080152 	-0.059671268 	1.0351314
0.00012060302 	0.038187825 	-0.066808438 	1.0323597
0.00014070352 	0.038187825 	-0.066808438 	1.0323597
0.00016080402 	0.038187825 	-0.066808438 	1.0323597
0.00018090452 	0.015746619 	-0.078173213 	1.0309375
0.00020100503 	0.015746619 	-0.078173213 	1.0309375
0.00022110553 	0.015746619 	-0.078173213 	1.0309375
0.00024120603 	0.033917964 	-0.073530821 	1.0281654
0.00026130653 	0.033917964 	-0.073530821 	1.0281654
0.00028140704 	0.032260399 	-0.075637208 	1.0268136
0.00030150754 	0.020073321 	-0.080166756 	1.026828
0.00032160804 	0.020073321 	-0.080166756 	1.026828
0.00034170854 	0.020384173 	-0.080819355 	1.0254689
0.00036180905 	0.020384173 	-0.080819355 	1.0254689
0.00038190955 	0.020384173 	-0.080819355 	1.0254689
0.00040201005 	0.019731638 	-0.081157609 	1.024596
0.00042211055 	0.019731638 	-0.081157609 	1.024596
0.00044221106 	0.019731638 	-0.081157609 	1.024596
0.00046231156 	0.018301012 	-0.080934983 	1.0243146
0.00048241206 	0.018301012 	-0.080934983 	1.0243146
0.00050251256 	0.01636371 	-0.079689339 	1.0249022
0.00052261307 	0.01636371 	-0.079689339 	1.0249022
0.00054271357 	0.01636371 	-0.079689339 	1.0249022
0.00056281407 	0.01429921 	-0.076785378 	1.0268246
0.00058291457 	0.01429921 	-0.076785378 	1.0268246
0.00060301508 	0.01429921 	-0.076785378 	1.0268246
0.00062311558 	0.012557767 	-0.071612327 	1.0305579
0.00064321608 	0.012557767 	-0.071612327 	1.0305579
0.00066331658 	0.012557767 	-0.071612327 	1.0305579
0.00068341709 	0.011562116 	-0.063905189 	1.036215
0.00070351759 	0.011562116 	-0.063905189 	1.036215
0.00072361809 	0.011593264 	-0.054023403 	1.0432018
0.00074371859 	0.011593264 	-0.054023403 	1.0432018
0.0007638191 	0.016805264 	-0.047407457 	1.0507968
0.0007839196 	0.017451572 	-0.036075211 	1.0567118
0.0008040201 	0.017451572 	-0.036075211 	1.0567118
0.0008241206 	0.017451572 	-0.036075211 	1.0567118
0.00084422111 	0.018960357 	-0.025401023 	1.0601267
0.00086432161 	0.018960357 	-0.025401023 	1.0601267
0.00088442211 	0.018960357 	-0.025401023 	1.0601267
0.00090452261 	0.021293815 	-0.016301448 	1.0600783
0.00092462312 	0.021293815 	-0.016301448 	1.0600783
0.00094472362 	0.024348007 	-0.0090246247 	1.0563059
0.00096482412 	0.024348007 	-0.0090246247 	1.0563059
0.00098492462 	0.024348007 	-0.0090246247 	1.0563059
0.0010050251 	0.028339497 	-0.0028817834 	1.0488022
0.0010251256 	0.027050105 	-0.0076585208 	1.0502828
0.0010452261 	0.027050105 	-0.0076585208 	1.0502828
0.0010653266 	0.032325546 	-0.0024499069 	1.0419203
0.0010854271 	0.032325546 	-0.0024499069 	1.0419203
0.0011055276 	0.032325546 	-0.0024499069 	1.0419203
0.0011256281 	0.036507604 	0.0013260594 	1.0339641
0.0011457286 	0.035400368 	0.0056392428 	1.0304712
0.0011658291 	0.035400368 	0.0056392428 	1.0304712
0.0011859296 	0.03580852 	0.0076397481 	1.0251942
0.0012060302 	0.03580852 	0.0076397481 	1.0251942
0.0012261307 	0.03580852 	0.0076397481 	1.0251942
0.0012462312 	0.033866101 	0.0086639456 	1.0234896
0.0012663317 	0.033866101 	0.0086639456 	1.0234896
0.0012864322 	0.033866101 	0.0086639456 	1.0234896
0.0013065327 	0.030610127 	0.0092809589 	1.0241947
0.0013266332 	0.030610127 	0.0092809589 	1.0241947
0.0013467337 	0.030610127 	0.0092809589 	1.0241947
0.0013668342 	0.027362845 	0.0093524517 	1.0256715
0.0013869347 	0.027362845 	0.0093524517 	1.0256715
0.0014070352 	0.027362845 	0.0093524517 	1.0256715
0.0014271357 	0.025084538 	0.0084796375 	1.026711
0.0014472362 	0.025084538 	0.0084796375 	1.026711
0.0014673367 	0.025084538 	0.0084796375 	1.026711
0.0014874372 	0.024247741 	0.0067322499 	1.0269557
0.0015075377 	0.024247741 	0.0067322499 	1.0269557
0.0015276382 	0.024868102 	0.0046310659 	1.0267495
0.0015477387 	0.024868102 	0.0046310659 	1.0267495
0.0015678392 	0.024868102 	0.0046310659 	1.0267495
0.0015879397 	0.026697152 	0.0027775829 	1.0265292
0.0016080402 	0.026697152 	0.0027775829 	1.0265292
0.0016281407 	0.026697152 	0.0027775829 	1.0265292
0.0016482412 	0.029482475 	0.0014756043 	1.0263691
0.0016683417 	0.029482475 	0.0014756043 	1.0263691
0.0016884422 	0.03303771 	0.00083796911 	1.0259427
0.0017085427 	0.03303771 	0.00083796911 	1.0259427
0.0017286432 	0.03303771 	0.00083796911 	1.0259427
0.0017487437 	0.037273905 	0.00079718024 	1.0248661
0.0017688442 	0.037273905 	0.00079718024 	1.0248661
0.0017889447 	0.037273905 	0.00079718024 	1.0248661
0.0018090452 	0.042122587 	0.0012737834 	1.0229431
0.0018291457 	0.042122587 	0.0012737834 	1.0229431
0.0018492462 	0.04739893 	0.0021818083 	1.0201978
0.0018693467 	0.04739893 	0.0021818083 	1.0201978
0.0018894472 	0.04739893 	0.0021818083 	1.0201978
0.0019095477 	0.052828767 	0.0034709752 	1.0167761
0.0019296482 	0.052828767 	0.0034709752 	1.0167761
0.0019497487 	0.058137859 	0.0051067149 	1.0128657
0.0019698492 	0.058137859 	0.0051067149 	1.0128657
0.0019899497 	0.063069313 	0.0070685897 	1.0086184
0.0020100503 	0.063069313 	0.0070685897 	1.0086184
0.0020301508 	0.063069313 	0.0070685897 	1.0086184
0.0020502513 	0.067420632 	0.0093409604 	1.0041612
0.0020703518 	0.067420632 	0.0093409604 	1.0041612
0.0020904523 	0.07108448 	0.011883629 	0.99958349
0.0021105528 	0.07108448 	0.011883629 	0.99958349
0.0021306533 	0.07108448 	0.011883629 	0.99958349
0.0021507538 	0.074039072 	0.014617283 	0.99493079
0.0021708543 	0.074039072 	0.014617283 	0.99493079
0.0021909548 	0.076328411 	0.017449677 	0.99019546
0.0022110553 	0.076328411 	0.017449677 	0.99019546
0.0022311558 	0.0780225 	0.020283624 	0.98531681
0.0022512563 	0.0780225 	0.020283624 	0.98531681
0.0022713568 	0.07919842 	0.02302502 	0.98021247
0.0022914573 	0.07919842 	0.02302502 	0.98021247
0.0023115578 	0.07919842 	0.02302502 	0.98021247
0.0023316583 	0.079930571 	0.025594042 	0.97481219
0.0023517588 	0.079930571 	0.025594042 	0.97481219
0.0023718593 	0.080271977 	0.027919842 	0.96909906
0.0023919598 	0.080271977 	0.027919842 	0.96909906
0.0024120603 	0.080249308 	0.029936502 	0.96313079
0.0024321608 	0.080249308 	0.029936502 	0.96313079
0.0024522613 	0.079875045 	0.031581664 	0.95703703
0.0024723618 	0.079875045 	0.031581664 	0.95703703
0.0024924623 	0.079156555 	0.032796114 	0.95098556
0.0025125628 	0.079156555 	0.032796114 	0.95098556
0.0025326633 	0.078105524 	0.033528224 	0.94514395
0.0025527638 	0.078105524 	0.033528224 	0.94514395
0.0025728643 	0.076747151 	0.033734753 	0.9396537
0.0025929648 	0.076747151 	0.033734753 	0.9396537
0.0026130653 	0.075126966 	0.033379978 	0.93462241
0.0026331658 	0.075126966 	0.033379978 	0.93462241
0.0026532663 	0.073311993 	0.032426859 	0.93012548
0.0026733668 	0.073311993 	0.032426859 	0.93012548
0.0026934673 	0.071390571 	0.030830527 	0.92622148
0.0027135678 	0.071390571 	0.030830527 	0.92622148
0.0027336683 	0.069471788 	0.02854041 	0.92295194
0.0027537688 	0.069471788 	0.02854041 	0.92295194
0.0027738693 	0.067677713 	0.025512702 	0.92034764
0.0027939698 	0.067677713 	0.025512702 	0.92034764
0.0028140704 	0.066134221 	0.021733597 	0.91842713
0.0028341709 	0.066134221 	0.021733597 	0.91842713
0.0028542714 	0.064960631 	0.017245038 	0.91716605
0.0028743719 	0.064253367 	0.012164845 	0.91646228
0.0028944724 	0.064253367 	0.012164845 	0.91646228
0.0029145729 	0.06407227 	0.0066959524 	0.9161247
0.0029346734 	0.06407227 	0.0066959524 	0.9161247
0.0029547739 	0.064425683 	0.0011144695 	0.91586697
0.0029748744 	0.064425683 	0.0011144695 	0.91586697
0.0029949749 	0.065259697 	-0.0042576457 	0.91532816
0.0030150754 	0.066458458 	-0.0091010681 	0.9141317
0.0030351759 	0.066458458 	-0.0091010681 	0.9141317
0.0030552764 	0.067851754 	-0.013149521 	0.91196347
0.0030753769 	0.067851754 	-0.013149521 	0.91196347
0.0030954774 	0.06928489 	-0.016228298 	0.90864286
0.0031155779 	0.070608932 	-0.018260852 	0.90416632
0.0031356784 	0.070608932 	-0.018260852 	0.90416632
0.0031557789 	0.071699372 	-0.019270011 	0.89869651
0.0031758794 	0.071699372 	-0.019270011 	0.89869651
0.0031959799 	0.072479278 	-0.019346983 	0.89253194
0.0032160804 	0.072919486 	-0.018613296 	0.88601974
0.0032361809 	0.072919486 	-0.018613296 	0.88601974
0.0032562814 	0.073054899 	-0.01718166 	0.87948959
0.0032763819 	0.072953599 	-0.015123941 	0.87318737
0.0032964824 	0.072953599 	-0.015123941 	0.87318737
0.0033165829 	0.072698124 	-0.012458685 	0.86724103
0.0033366834 	0.072398213 	-0.0091526806 	0.86165374
0.0033567839 	0.072398213 	-0.0091526806 	0.86165374
0.0033768844 	0.07212463 	-0.0051347064 	0.8563179
0.0033969849 	0.0718642 	-0.00033044057 	0.85103652
0.0034170854 	0.0718642 	-0.00033044057 	0.85103652
0.0034371859 	0.071565829 	0.005309761 	0.84553532
0.0034572864 	0.071133108 	0.011795482 	0.83945019
0.0034773869 	0.070420337 	0.019082512 	0.83231044
0.0034974874 	0.070420337 	0.019082512 	0.83231044
0.0035175879 	0.069235406 	0.027059797 	0.82358279
0.0035376884 	0.067298289 	0.035442577 	0.81290827
0.0035577889 	0.064198582 	0.043454993 	0.80057489
0.0035778894 	0.064198582 	0.043454993 	0.80057489
0.0035979899 	0.059444732 	0.04925851 	0.78765088
0.0036180905 	0.052707894 	0.049604001 	0.77480538
0.003638191 	0.044154979 	0.040929282 	0.76013762
0.0036582915 	0.044154979 	0.040929282 	0.76013762
0.003678392 	0.034618313 	0.021992377 	0.73878804
0.0036984925 	0.024903172 	-0.0041447343 	0.70654969
0.003718593 	0.015312043 	-0.031453375 	0.6642937
0.0037386935 	0.0062270321 	-0.054678742 	0.61727431
0.003758794 	-0.0014635071 	-0.071607815 	0.56979351
0.0037788945 	-0.0014635071 	-0.071607815 	0.56979351
0.003798995 	-0.0067510355 	-0.082032945 	0.52226552
0.0038190955 	-0.0092639169 	-0.08608187 	0.47327719
0.003839196 	-0.0094561282 	-0.084178926 	0.42235533
0.0038592965 	-0.0082117553 	-0.077539018 	0.37012041
0.003879397 	-0.0063651333 	-0.06790065 	0.31702008
0.0038994975 	-0.0044678778 	-0.056848558 	0.26277102
0.003919598 	-0.0027988558 	-0.045320272 	0.20678792
0.0039396985 	-0.0014735055 	-0.033470644 	0.14879219
0.003959799 	-0.00054514787 	-0.020874112 	0.089139949
0.0039798995 	-6.3627702e-05 	-0.0071115952 	0.029068099
0.004 	-6.3627702e-05 	-0.0071115952 	0.029068099
