0 	-0.063024468 	0.0082469433 	1.1368566
2.0100503e-05 	0.012279923 	0.061550161 	1.1389639
4.0201005e-05 	0.012279923 	0.061550161 	1.1389639
6.0301508e-05 	0.042090041 	0.047024122 	1.1391222
8.040201e-05 	0.042090041 	0.047024122 	1.1391222
0.00010050251 	0.042090041 	0.047024122 	1.1391222
0.00012060302 	0.051772519 	0.038505203 	1.1375333
0.00014070352 	0.051772519 	0.038505203 	1.1375333
0.00016080402 	0.051772519 	0.038505203 	1.1375333
0.00018090452 	0.058907792 	0.031285262 	1.1345263
0.00020100503 	0.058907792 	0.031285262 	1.1345263
0.00022110553 	0.058907792 	0.031285262 	1.1345263
0.00024120603 	0.065644874 	0.022755954 	1.1304696
0.00026130653 	0.065644874 	0.022755954 	1.1304696
0.00028140704 	0.071784553 	0.012341949 	1.1261582
0.00030150754 	0.071784553 	0.012341949 	1.1261582
0.00032160804 	0.071784553 	0.012341949 	1.1261582
0.00034170854 	0.076343646 	0.0010822464 	1.1230795
0.00036180905 	0.076343646 	0.0010822464 	1.1230795
0.00038190955 	0.076343646 	0.0010822464 	1.1230795
0.00040201005 	0.078319669 	-0.0094654867 	1.1228752
0.00042211055 	0.078319669 	-0.0094654867 	1.1228752
0.00044221106 	0.078319669 	-0.0094654867 	1.1228752
0.00046231156 	0.077260535 	-0.018352516 	1.1262494
0.00048241206 	0.077260535 	-0.018352516 	1.1262494
0.00050251256 	0.073549359 	-0.025393003 	1.1322288
0.00052261307 	0.073549359 	-0.025393003 	1.1322288
0.00054271357 	0.073549359 	-0.025393003 	1.1322288
0.00056281407 	0.068276503 	-0.030618401 	1.1384132
0.00058291457 	0.068276503 	-0.030618401 	1.1384132
0.00060301508 	0.068276503 	-0.030618401 	1.1384132
0.00062311558 	0.062692554 	-0.03388109 	1.1421422
0.00064321608 	0.062692554 	-0.03388109 	1.1421422
0.00066331658 	0.062692554 	-0.03388109 	1.1421422
0.00068341709 	0.057687704 	-0.035039244 	1.1417578
0.00070351759 	0.057687704 	-0.035039244 	1.1417578
0.00072361809 	0.05358088 	-0.034293235 	1.1371646
0.00074371859 	0.05358088 	-0.034293235 	1.1371646
0.0007638191 	0.05358088 	-0.034293235 	1.1371646
0.0007839196 	0.050239716 	-0.032259726 	1.1294615
0.0008040201 	0.050239716 	-0.032259726 	1.1294615
0.0008241206 	0.050239716 	-0.032259726 	1.1294615
0.00084422111 	0.04730759 	-0.029729623 	1.1202449
0.00086432161 	0.04730759 	-0.029729623 	1.1202449
0.00088442211 	0.04730759 	-0.029729623 	1.1202449
0.00090452261 	0.044435009 	-0.027405205 	1.1110214
0.00092462312 	0.044435009 	-0.027405205 	1.1110214
0.00094472362 	0.041560799 	-0.025660978 	1.1030063
0.00096482412 	0.030280906 	-0.021784454 	1.0913551
0.00098492462 	0.030280906 	-0.021784454 	1.0913551
0.0010050251 	0.027819951 	-0.020735985 	1.083806
0.0010251256 	0.038548249 	-0.024433456 	1.0969654
0.0010452261 	0.038548249 	-0.024433456 	1.0969654
0.0010653266 	0.035303379 	-0.023460513 	1.0940438
0.0010854271 	0.035303379 	-0.023460513 	1.0940438
0.0011055276 	0.035303379 	-0.023460513 	1.0940438
0.0011256281 	0.032056997 	-0.022217688 	1.0944132
0.0011457286 	0.032056997 	-0.022217688 	1.0944132
0.0011658291 	0.032056997 	-0.022217688 	1.0944132
0.0011859296 	0.029030694 	-0.020292909 	1.0974248
0.0012060302 	0.029030694 	-0.020292909 	1.0974248
0.0012261307 	0.029030694 	-0.020292909 	1.0974248
0.0012462312 	0.026635346 	-0.017445101 	1.1021627
0.0012663317 	0.026635346 	-0.017445101 	1.1021627
0.0012864322 	0.026635346 	-0.017445101 	1.1021627
0.0013065327 	0.02550467 	-0.013646409 	1.1075055
0.0013266332 	0.02550467 	-0.013646409 	1.1075055
0.0013467337 	0.02550467 	-0.013646409 	1.1075055
0.0013668342 	0.026153071 	-0.0095616293 	1.1121055
0.0013869347 	0.026153071 	-0.0095616293 	1.1121055
0.0014070352 	0.026153071 	-0.0095616293 	1.1121055
0.0014271357 	0.02865119 	-0.0062957102 	1.1147719
0.0014472362 	0.02865119 	-0.0062957102 	1.1147719
0.0014673367 	0.02865119 	-0.0062957102 	1.1147719
0.0014874372 	0.032822065 	-0.0044131502 	1.1148857
0.0015075377 	0.032822065 	-0.0044131502 	1.1148857
0.0015276382 	0.038190215 	-0.0035129846 	1.1126646
0.0015477387 	0.038190215 	-0.0035129846 	1.1126646
0.0015678392 	0.038190215 	-0.0035129846 	1.1126646
0.0015879397 	0.04388319 	-0.0028755049 	1.1090869
0.0016080402 	0.04388319 	-0.0028755049 	1.1090869
0.0016281407 	0.04388319 	-0.0028755049 	1.1090869
0.0016482412 	0.049082641 	-0.0021105839 	1.1052775
0.0016683417 	0.049082641 	-0.0021105839 	1.1052775
0.0016884422 	0.053493675 	-0.0011423536 	1.1015035
0.0017085427 	0.053493675 	-0.0011423536 	1.1015035
0.0017286432 	0.053493675 	-0.0011423536 	1.1015035
0.0017487437 	0.057340962 	-7.3710455e-05 	1.0972243
0.0017688442 	0.057340962 	-7.3710455e-05 	1.0972243
0.0017889447 	0.057340962 	-7.3710455e-05 	1.0972243
0.0018090452 	0.060578319 	0.00085054087 	1.0918673
0.0018291457 	0.060578319 	0.00085054087 	1.0918673
0.0018492462 	0.062993359 	0.0014828303 	1.0851311
0.0018693467 	0.062993359 	0.0014828303 	1.0851311
0.0018894472 	0.062993359 	0.0014828303 	1.0851311
0.0019095477 	0.064461187 	0.0017620987 	1.0769642
0.0019296482 	0.064461187 	0.0017620987 	1.0769642
0.0019497487 	0.064844604 	0.0019028625 	1.0676561
0.0019698492 	0.064844604 	0.0019028625 	1.0676561
0.0019899497 	0.064082188 	0.0023521081 	1.0576665
0.0020100503 	0.064082188 	0.0023521081 	1.0576665
0.0020301508 	0.064082188 	0.0023521081 	1.0576665
0.0020502513 	0.062169245 	0.0036753757 	1.0473423
0.0020703518 	0.062169245 	0.0036753757 	1.0473423
0.0020904523 	0.059248779 	0.0067086575 	1.0367626
0.0021105528 	0.059248779 	0.0067086575 	1.0367626
0.0021306533 	0.059248779 	0.0067086575 	1.0367626
0.0021507538 	0.055679711 	0.012653534 	1.025711
0.0021708543 	0.055679711 	0.012653534 	1.025711
0.0021909548 	0.051914073 	0.022913485 	1.0137369
0.0022110553 	0.051914073 	0.022913485 	1.0137369
0.0022311558 	0.048251886 	0.038328022 	1.0004695
0.0022512563 	0.048251886 	0.038328022 	1.0004695
0.0022713568 	0.044680505 	0.058286878 	0.98597155
0.0022914573 	0.044680505 	0.058286878 	0.98597155
0.0023115578 	0.044680505 	0.058286878 	0.98597155
0.0023316583 	0.040794411 	0.080600211 	0.97071455
0.0023517588 	0.040794411 	0.080600211 	0.97071455
0.0023718593 	0.035968196 	0.10228772 	0.95523961
0.0023919598 	0.035968196 	0.10228772 	0.95523961
0.0024120603 	0.0296923 	0.120433 	0.93970653
0.0024321608 	0.0296923 	0.120433 	0.93970653
0.0024522613 	0.02166316 	0.1325324 	0.92382623
0.0024723618 	0.02166316 	0.1325324 	0.92382623
0.0024924623 	0.011841432 	0.13716334 	0.90717995
0.0025125628 	0.011841432 	0.13716334 	0.90717995
0.0025326633 	0.00054218239 	0.13438935 	0.88986323
0.0025527638 	0.00054218239 	0.13438935 	0.88986323
0.0025728643 	-0.011478433 	0.12537968 	0.87328404
0.0025929648 	-0.011478433 	0.12537968 	0.87328404
0.0026130653 	-0.023299606 	0.11176607 	0.85952057
0.0026331658 	-0.023299606 	0.11176607 	0.85952057
0.0026532663 	-0.034065667 	0.095380055 	0.84888479
0.0026733668 	-0.034065667 	0.095380055 	0.84888479
0.0026934673 	-0.04306287 	0.078477849 	0.83943192
0.0027135678 	-0.04306287 	0.078477849 	0.83943192
0.0027336683 	-0.050019927 	0.063645 	0.82969094
0.0027537688 	-0.050019927 	0.063645 	0.82969094
0.0027738693 	-0.055034454 	0.052732223 	0.82011071
0.0027939698 	-0.055034454 	0.052732223 	0.82011071
0.0028140704 	-0.058250978 	0.045863838 	0.81164713
0.0028341709 	-0.058250978 	0.045863838 	0.81164713
0.0028542714 	-0.05965794 	0.041900269 	0.8045221
0.0028743719 	-0.05910092 	0.039567314 	0.79834374
0.0028944724 	-0.05910092 	0.039567314 	0.79834374
0.0029145729 	-0.056503554 	0.038081764 	0.79255956
0.0029346734 	-0.056503554 	0.038081764 	0.79255956
0.0029547739 	-0.052015306 	0.037149143 	0.78671636
0.0029748744 	-0.052015306 	0.037149143 	0.78671636
0.0029949749 	-0.046016084 	0.03668513 	0.78053859
0.0030150754 	-0.039012487 	0.036583785 	0.77393317
0.0030351759 	-0.039012487 	0.036583785 	0.77393317
0.0030552764 	-0.031507898 	0.036655929 	0.76695512
0.0030753769 	-0.031507898 	0.036655929 	0.76695512
0.0030954774 	-0.023949858 	0.03668521 	0.75974886
0.0031155779 	-0.016709646 	0.036474734 	0.75252796
0.0031356784 	-0.016709646 	0.036474734 	0.75252796
0.0031557789 	-0.010075674 	0.035904199 	0.74551711
0.0031758794 	-0.010075674 	0.035904199 	0.74551711
0.0031959799 	-0.0042568708 	0.034935733 	0.73892095
0.0032160804 	0.00061176507 	0.033599338 	0.73288823
0.0032361809 	0.00061176507 	0.033599338 	0.73288823
0.0032562814 	0.004447349 	0.031977355 	0.7275027
0.0032763819 	0.007237176 	0.030175211 	0.72278153
0.0032964824 	0.007237176 	0.030175211 	0.72278153
0.0033165829 	0.0090274255 	0.02830562 	0.71867661
0.0033366834 	0.0099026091 	0.026471574 	0.7150949
0.0033567839 	0.0099026091 	0.026471574 	0.7150949
0.0033768844 	0.0099876693 	0.024780408 	0.71187214
0.0033969849 	0.0094416253 	0.02334544 	0.70877121
0.0034170854 	0.0094416253 	0.02334544 	0.70877121
0.0034371859 	0.0084785091 	0.022318276 	0.70541022
0.0034572864 	0.0073315829 	0.021929557 	0.70120417
0.0034773869 	0.0062620938 	0.022486113 	0.69533075
0.0034974874 	0.0062620938 	0.022486113 	0.69533075
0.0035175879 	0.0055718426 	0.024359497 	0.68674155
0.0035376884 	0.005542551 	0.027885535 	0.67429021
0.0035577889 	0.0063652304 	0.033164632 	0.65704754
0.0035778894 	0.0063652304 	0.033164632 	0.65704754
0.0035979899 	0.0080445162 	0.039822843 	0.63474764
0.0036180905 	0.010304737 	0.046872821 	0.60821946
0.003638191 	0.012614954 	0.052832882 	0.5794415
0.0036582915 	0.012614954 	0.052832882 	0.5794415
0.003678392 	0.014353606 	0.056121414 	0.55100852
0.0036984925 	0.015032453 	0.05547516 	0.52526226
0.003718593 	0.014443403 	0.050213867 	0.50354967
0.0037386935 	0.012659618 	0.040377362 	0.48580428
0.003758794 	0.0099327487 	0.026814191 	0.47039426
0.0037788945 	0.0099327487 	0.026814191 	0.47039426
0.003798995 	0.006585664 	0.011148385 	0.45431216
0.0038190955 	0.0030270298 	-0.0044924332 	0.43377301
0.003839196 	-0.00015870767 	-0.01800678 	0.40523027
0.0038592965 	-0.0024848336 	-0.0278249 	0.36662575
0.003879397 	-0.0037567394 	-0.033129273 	0.31806638
0.0038994975 	-0.0039715423 	-0.033854952 	0.26185859
0.003919598 	-0.003338625 	-0.030523646 	0.20167491
0.0039396985 	-0.0022183337 	-0.023970792 	0.14116534
0.003959799 	-0.0010262278 	-0.015110098 	0.082735279
0.0039798995 	-0.00015628257 	-0.0049583069 	0.027053337
0.004 	-0.00015628257 	-0.0049583069 	0.027053337
