0 	0.024364485 	-0.049691838 	1.0861531
5.5555556e-05 	0.040069424 	-0.033941194 	1.0841457
0.00011111111 	0.039499686 	-0.029768087 	1.0796828
0.00016666667 	0.036377172 	-0.028936388 	1.0734714
0.00022222222 	0.032565396 	-0.029486065 	1.0664308
0.00027777778 	0.028640187 	-0.03096396 	1.0594393
0.00033333333 	0.02480642 	-0.033373218 	1.0531292
0.00038888889 	0.021102516 	-0.036817819 	1.0478279
0.00044444444 	0.017535462 	-0.041282753 	1.0436639
0.0005 	0.014180915 	-0.046499199 	1.0407305
0.00055555556 	0.011208925 	-0.051906782 	1.0391644
0.00061111111 	0.0088376604 	-0.05672257 	1.0390553
0.00066666667 	0.0072448079 	-0.060135686 	1.0402778
0.00072222222 	0.0065150493 	-0.061580695 	1.0424399
0.00077777778 	0.0066220486 	-0.060955207 	1.0450458
0.00083333333 	0.0075175715 	-0.058620786 	1.0477191
0.00088888889 	0.0091027738 	-0.055208351 	1.0503115
0.00094444444 	0.01127325 	-0.051375397 	1.0528589
0.001 	0.014031298 	-0.047384635 	1.0554658
0.0010617199 	0.01714641 	-0.043661867 	1.0580527
0.0011225874 	0.020259792 	-0.040329098 	1.0603258
0.0011826143 	0.023147017 	-0.037161226 	1.062111
0.0012418122 	0.025732861 	-0.033915697 	1.063284
0.0013001926 	0.027989558 	-0.030392368 	1.0637931
0.0013577668 	0.029976317 	-0.026476507 	1.0636647
0.0014145458 	0.031743679 	-0.022143074 	1.0629678
0.0014705407 	0.03332872 	-0.017433754 	1.0617973
0.0015257623 	0.034777491 	-0.012412368 	1.0602422
0.0015802213 	0.036121733 	-0.0071479974 	1.0583581
0.0016339282 	0.037413329 	-0.0017337582 	1.0561457
0.0016868934 	0.038694001 	0.0036810377 	1.0535604
0.0017391271 	0.039987624 	0.0088921552 	1.0505381
0.0017906395 	0.04129296 	0.013652985 	1.0470406
0.0018414404 	0.042563204 	0.017735803 	1.0430937
0.0018915398 	0.043711832 	0.020986215 	1.0388124
0.0019409473 	0.044596703 	0.023351733 	1.0344012
0.0019896725 	0.045038574 	0.024879851 	1.0301425
0.0020377248 	0.044818754 	0.025700698 	1.0263394
0.0020851134 	0.0436891 	0.025996516 	1.0232446
0.0021318476 	0.041407321 	0.02597244 	1.0209511
0.0021779364 	0.037768009 	0.025699767 	1.0194044
0.0022233887 	0.03258282 	0.025068232 	1.0184804
0.0022682133 	0.025848757 	0.023761233 	1.0178785
0.0023124189 	0.017996533 	0.021588693 	1.0169372
0.0023560139 	0.0098901175 	0.018736502 	1.0144038
0.0023990069 	0.0027142982 	0.01586191 	1.0086717
0.0024414062 	-0.0023455653 	0.01388979 	0.99839256
0.0024832199 	-0.0045087683 	0.013675383 	0.98305822
0.0025244562 	-0.0035588315 	0.015741079 	0.96320589
0.002565123 	0.00015877692 	0.020190868 	0.94016589
0.0026052281 	0.0058915115 	0.026754751 	0.91563615
0.0026447794 	0.012727442 	0.034906781 	0.89131241
0.0026837845 	0.019777575 	0.044024321 	0.8685784
0.0027222509 	0.02633224 	0.053506999 	0.84839397
0.0027601861 	0.031927279 	0.062842468 	0.83130678
0.0027975974 	0.036327265 	0.071621485 	0.81756595
0.002834492 	0.039474965 	0.079508797 	0.80729788
0.0028708772 	0.041419982 	0.086184329 	0.80064239
0.0029067598 	0.042283796 	0.091339982 	0.79778257
0.0029421469 	0.042226263 	0.094695278 	0.79888077
0.0029770452 	0.041424332 	0.096043762 	0.80396962
0.0030114616 	0.040041399 	0.095293293 	0.81280009
0.0030454028 	0.038217224 	0.092507659 	0.82479726
0.0030788752 	0.036066189 	0.087835887 	0.83908745
0.0031118853 	0.033655275 	0.081429803 	0.85463526
0.0031444395 	0.031022334 	0.073367748 	0.87038209
0.0031765442 	0.02823556 	0.063604808 	0.88524921
0.0032082055 	0.025480274 	0.052011196 	0.89825323
0.0032394295 	0.022837824 	0.038419211 	0.90822427
0.0032702223 	0.020599549 	0.022746865 	0.91392774
0.0033005899 	0.019177756 	0.0050384305 	0.91383321
0.0033305381 	0.019102441 	-0.014479406 	0.90631813
0.0033600727 	0.020722266 	-0.03532102 	0.890009
0.0033891994 	0.024130675 	-0.056666391 	0.86423307
0.0034179239 	0.029169404 	-0.07742506 	0.82940219
0.0034462517 	0.035313457 	-0.096348251 	0.78735587
0.0034741882 	0.041767295 	-0.11220917 	0.74131943
0.003501739 	0.047613399 	-0.12400621 	0.69544083
0.0035289093 	0.052041195 	-0.13111985 	0.65393129
0.0035557043 	0.054544949 	-0.13336089 	0.62008286
0.0035821293 	0.055004344 	-0.13090643 	0.59558674
0.0036081894 	0.053620675 	-0.12418458 	0.58043831
0.0036338895 	0.050770623 	-0.11377461 	0.57337818
0.0036592348 	0.046865613 	-0.1003374 	0.57259388
0.00368423 	0.042269244 	-0.084551963 	0.57637017
0.00370888 	0.0372675 	-0.067045952 	0.5833991
0.0037331896 	0.032078163 	-0.048364042 	0.59256072
0.0037571635 	0.026871892 	-0.029028913 	0.60220653
0.0037808063 	0.021736654 	-0.0097005547 	0.60935169
0.0038041226 	0.016879672 	0.0086768325 	0.60935787
0.0038271169 	0.012498626 	0.024959186 	0.59651777
0.0038497936 	0.0086397632 	0.037970386 	0.56543817
0.0038721572 	0.0054199894 	0.046700744 	0.51288543
0.0038942119 	0.0029701808 	0.050400681 	0.43941002
0.003915962 	0.0013356196 	0.048568157 	0.34965976
0.0039374118 	0.00042384966 	0.040994695 	0.25065978
0.0039585653 	3.7621054e-05 	0.027932458 	0.14895101
0.0039794267 	-2.4557545e-05 	0.010281539 	0.048677064
0.004 	0.0001513639 	0.0039186853 	0.043565271
