0 	0.016306043 	-0.027340696 	1.1234023
5.5555625e-05 	0.0046353168 	-0.035159906 	1.1221602
0.00011111111 	0.0018867905 	-0.038735095 	1.1203832
0.00016666667 	0.0010240527 	-0.041560039 	1.1180213
0.00022222222 	0.00074747092 	-0.043699263 	1.114931
0.00027777778 	0.00064917231 	-0.045147988 	1.110841
0.00033333333 	0.00051854338 	-0.046037714 	1.1054271
0.00038888889 	0.00019955577 	-0.046683653 	1.0985082
0.00044444444 	-0.00041886388 	-0.047577182 	1.0903035
0.0005 	-0.0013556093 	-0.049265276 	1.0815739
0.00055555556 	-0.0025099853 	-0.052100356 	1.0734743
0.00061111111 	-0.0037264327 	-0.055946211 	1.0671463
0.00066666667 	-0.0049122213 	-0.060064227 	1.0633103
0.00072222222 	-0.0060405633 	-0.063327594 	1.0620602
0.00077777778 	-0.0070304437 	-0.064642495 	1.0628387
0.00083333333 	-0.0076547651 	-0.063257396 	1.0645688
0.00088888889 	-0.0075764049 	-0.058894908 	1.0659314
0.00094444444 	-0.0066116097 	-0.051793835 	1.0657664
0.001 	-0.004727117 	-0.04240883 	1.0632755
0.0010617199 	-0.0026281618 	-0.032617564 	1.0583525
0.0011225874 	-0.0016567337 	-0.024986468 	1.0523982
0.0011826143 	-0.0023676752 	-0.02034512 	1.0467604
0.0012418122 	-0.0046404746 	-0.018058799 	1.0420904
0.0013001926 	-0.0077606236 	-0.016411003 	1.0381734
0.0013577668 	-0.010700598 	-0.013481001 	1.0341973
0.0014145458 	-0.012544584 	-0.008087762 	1.0292433
0.0014705407 	-0.012847419 	-0.00048266518 	1.0228801
0.0015257623 	-0.011800478 	0.0078712864 	1.0154535
0.0015802213 	-0.0099416039 	0.015221343 	1.0077748
0.0016339282 	-0.007927271 	0.020501226 	1.0003877
0.0016868934 	-0.0064040801 	0.023788451 	0.9931594
0.0017391271 	-0.0056586665 	0.025959211 	0.9856986
0.0017906395 	-0.0055435567 	0.02793114 	0.9781234
0.0018414404 	-0.0056096651 	0.029878062 	0.97133197
0.0018915398 	-0.0053289541 	0.031116119 	0.96648026
0.0019409473 	-0.0043959719 	0.030830412 	0.96424912
0.0019896725 	-0.0027963797 	0.028917916 	0.96458667
0.0020377248 	-0.00066901558 	0.026141641 	0.96708692
0.0020851134 	0.0018951509 	0.023532305 	0.97151076
0.0021318476 	0.0048909229 	0.021759623 	0.97782822
0.0021779364 	0.0083287494 	0.020938284 	0.98584956
0.0022233887 	0.01215748 	0.020749131 	0.99487931
0.0022682133 	0.016245154 	0.020676065 	1.0037431
0.0023124189 	0.020438835 	0.020118015 	1.011271
0.0023560139 	0.024586766 	0.018562707 	1.0168085
0.0023990069 	0.028542981 	0.015830783 	1.0202452
0.0024414062 	0.032175147 	0.012117942 	1.0216198
0.0024832199 	0.035370127 	0.0077529692 	1.020802
0.0025244562 	0.038057555 	0.0029278147 	1.017577
0.002565123 	0.040278535 	-0.0022874376 	1.0118207
0.0026052281 	0.042181922 	-0.0078600959 	1.0035566
0.0026447794 	0.04390865 	-0.013721539 	0.99295789
0.0026837845 	0.045610898 	-0.01978736 	0.98030869
0.0027222509 	0.047450739 	-0.025941623 	0.96591913
0.0027601861 	0.049548217 	-0.032018526 	0.95006406
0.0027975974 	0.052002564 	-0.03778365 	0.93294791
0.002834492 	0.054861498 	-0.042937494 	0.9147107
0.0028708772 	0.058108333 	-0.047110595 	0.89549264
0.0029067598 	0.061632663 	-0.049866395 	0.87552544
0.0029421469 	0.065246974 	-0.050734565 	0.85526575
0.0029770452 	0.068741903 	-0.049267599 	0.83548784
0.0030114616 	0.071955671 	-0.045100942 	0.81722818
0.0030454028 	0.074880673 	-0.038033067 	0.80155159
0.0030788752 	0.077754946 	-0.02789652 	0.78923775
0.0031118853 	0.080988037 	-0.014602052 	0.78050275
0.0031444395 	0.085000676 	0.0018860734 	0.77491205
0.0031765442 	0.089796742 	0.02130952 	0.77134748
0.0032082055 	0.094977443 	0.042819298 	0.76802657
0.0032394295 	0.099979592 	0.064883241 	0.76289043
0.0032702223 	0.10396512 	0.085521085 	0.75380753
0.0033005899 	0.1059887 	0.10245959 	0.73910008
0.0033305381 	0.10506977 	0.11294634 	0.71866501
0.0033600727 	0.10028199 	0.1134489 	0.69511242
0.0033891994 	0.091201576 	0.10025222 	0.67254257
0.0034179239 	0.078735299 	0.07206919 	0.65148829
0.0034462517 	0.065538661 	0.033459 	0.62440585
0.0034741882 	0.054369049 	-0.0048484136 	0.57938921
0.003501739 	0.04599543 	-0.031076713 	0.51181668
0.0035289093 	0.038595251 	-0.040198658 	0.43262941
0.0035557043 	0.029392159 	-0.037168026 	0.36208848
0.0035821293 	0.017910564 	-0.030681026 	0.31302144
0.0036081894 	0.006254133 	-0.025354247 	0.28381001
0.0036338895 	-0.0034702829 	-0.021533242 	0.26651746
0.0036592348 	-0.010417484 	-0.018688222 	0.25502705
0.00368423 	-0.014763455 	-0.01674156 	0.24637094
0.00370888 	-0.017106542 	-0.015729674 	0.23927366
0.0037331896 	-0.017935372 	-0.01559548 	0.23300121
0.0037571635 	-0.017634557 	-0.016198988 	0.22688169
0.0037808063 	-0.016485526 	-0.017307395 	0.22014195
0.0038041226 	-0.014659891 	-0.018669682 	0.21190458
0.0038271169 	-0.012297172 	-0.020035211 	0.20123816
0.0038497936 	-0.0095577479 	-0.021164209 	0.18718722
0.0038721572 	-0.0066631074 	-0.021851428 	0.16892905
0.0038942119 	-0.0039280021 	-0.02195675 	0.1459534
0.003915962 	-0.0017088947 	-0.021363207 	0.11817882
0.0039374118 	-0.00028285011 	-0.019774401 	0.086059609
0.0039585653 	0.00025930057 	-0.016234915 	0.050890432
0.0039794267 	9.4309416e-05 	-0.0083874539 	0.015443791
0.004 	9.4309416e-05 	-0.0083874539 	0.015443791
