0 	0.022411581 	0.023598318 	0.97216653
5.5555556e-05 	0.012323205 	-0.010163423 	0.98267291
0.00011111111 	0.010903825 	-0.0030570826 	0.99425357
0.00016666667 	0.0096467265 	0.0031494972 	1.0100272
0.00022222222 	0.0073953261 	0.0076943027 	1.0286069
0.00027777778 	0.004077236 	0.01063724 	1.0480598
0.00033333333 	0.00011990453 	0.012557786 	1.0665997
0.00038888889 	-0.0039137876 	0.014328806 	1.0826867
0.00044444444 	-0.0076054384 	0.016783692 	1.094806
0.0005 	-0.010770541 	0.020448066 	1.101668
0.00055555556 	-0.013372937 	0.025344655 	1.1028003
0.00061111111 	-0.015422131 	0.030870381 	1.0988587
0.00066666667 	-0.01704856 	0.035787175 	1.0913127
0.00072222222 	-0.018671671 	0.038457764 	1.0819304
0.00077777778 	-0.020960929 	0.037595619 	1.0722948
0.00083333333 	-0.024505506 	0.033049037 	1.0634758
0.00088888889 	-0.029485406 	0.026067213 	1.0561286
0.00094444444 	-0.035463363 	0.018973345 	1.0508866
0.001 	-0.041868092 	0.014035971 	1.0482415
0.0010617224 	-0.0473357 	0.014069554 	1.0487543
0.0011225923 	-0.05030042 	0.019003475 	1.0507985
0.0011826215 	-0.050863015 	0.026043423 	1.0515839
0.0012418217 	-0.049464972 	0.032389646 	1.0495091
0.0013002041 	-0.046561631 	0.036288504 	1.0445876
0.0013577803 	-0.042597767 	0.037081369 	1.0375996
0.0014145612 	-0.038056491 	0.03506267 	1.029465
0.0014705579 	-0.033522696 	0.031203633 	1.0208097
0.0015257812 	-0.029641563 	0.026699957 	1.0117183
0.0015802418 	-0.026891958 	0.022657978 	1.0016748
0.0016339502 	-0.025486243 	0.020004349 	0.98984964
0.0016869168 	-0.025361589 	0.019412677 	0.97564502
0.0017391518 	-0.026173786 	0.021200524 	0.95916357
0.0017906654 	-0.027429369 	0.025249902 	0.94133939
0.0018414676 	-0.028672544 	0.0311442 	0.92359636
0.0018915681 	-0.029607593 	0.038345974 	0.90727101
0.0019409766 	-0.030152208 	0.046358844 	0.8932619
0.0019897027 	-0.030416487 	0.05465121 	0.88204724
0.0020377558 	-0.0305807 	0.062600449 	0.87385566
0.0020851453 	-0.030790168 	0.069507343 	0.86872997
0.0021318802 	-0.031114855 	0.074631421 	0.8664897
0.0021779697 	-0.031567767 	0.077252874 	0.86676508
0.0022234225 	-0.032133165 	0.076833116 	0.86916339
0.0022682477 	-0.032850229 	0.073288685 	0.87350876
0.0023124537 	-0.033916801 	0.067223207 	0.88000518
0.0023560491 	-0.035656835 	0.059841518 	0.8891415
0.0023990425 	-0.038265133 	0.052388273 	0.90123165
0.002441442 	-0.041623985 	0.04545052 	0.91583627
0.002483256 	-0.045275192 	0.038778483 	0.93167269
0.0025244924 	-0.048638409 	0.03172551 	0.94709283
0.0025651593 	-0.051311747 	0.023848046 	0.96083507
0.0026052645 	-0.053181076 	0.015084397 	0.97235096
0.0026448158 	-0.054247154 	0.0056328233 	0.98167287
0.0026838209 	-0.054640101 	-0.0042761635 	0.98898917
0.0027222872 	-0.054522198 	-0.014465111 	0.99439721
0.0027602223 	-0.053922502 	-0.024733636 	0.99780351
0.0027976334 	-0.052848087 	-0.034857118 	0.99891129
0.0028345278 	-0.051281017 	-0.044496913 	0.99734874
0.0028709126 	-0.049173411 	-0.053151026 	0.9927287
0.002906795 	-0.0464742 	-0.060136388 	0.98469361
0.0029421817 	-0.043131113 	-0.064635421 	0.97297333
0.0029770797 	-0.039128753 	-0.065862459 	0.95744479
0.0030114957 	-0.034489445 	-0.063322713 	0.93823763
0.0030454363 	-0.029318295 	-0.05701926 	0.91582009
0.0030789082 	-0.02381508 	-0.047486388 	0.89108498
0.0031119178 	-0.018259524 	-0.035651891 	0.86528866
0.0031444715 	-0.012965087 	-0.022660025 	0.83990395
0.0031765755 	-0.0081987823 	-0.0097599923 	0.81634767
0.0032082362 	-0.0041078616 	0.0018197267 	0.79583982
0.0032394596 	-0.00077882842 	0.010995827 	0.77921002
0.0032702517 	0.0018603051 	0.016948673 	0.76679184
0.0033006186 	0.004033379 	0.01926963 	0.75838697
0.003330566 	0.005926683 	0.017975896 	0.75332839
0.0033600998 	0.0077350258 	0.013476835 	0.75055187
0.0033892257 	0.0096125294 	0.0064366637 	0.74879464
0.0034179494 	0.011672048 	-0.0023778417 	0.74679846
0.0034462763 	0.014022344 	-0.012219526 	0.74347765
0.003474212 	0.016725962 	-0.022433021 	0.73805694
0.0035017619 	0.019789585 	-0.032453857 	0.73014992
0.0035289312 	0.023135067 	-0.041787629 	0.71976206
0.0035557253 	0.026593416 	-0.05000546 	0.70723641
0.0035821494 	0.029928492 	-0.056742008 	0.69316472
0.0036082084 	0.032873714 	-0.061712172 	0.67827043
0.0036339076 	0.035172882 	-0.064736544 	0.66326394
0.0036592518 	0.036615942 	-0.065756619 	0.64867799
0.003684246 	0.037057921 	-0.064834581 	0.63472333
0.003708895 	0.036411562 	-0.062131528 	0.62125038
0.0037332035 	0.034613309 	-0.057834509 	0.60787899
0.0037571763 	0.031602869 	-0.051978912 	0.59415402
0.003780818 	0.027380949 	-0.044188849 	0.579302
0.0038041332 	0.022135399 	-0.033572567 	0.561304
0.0038271264 	0.016384389 	-0.019320111 	0.53605501
0.0038498019 	0.010900732 	-0.0019468924 	0.49807751
0.0038721643 	0.0063965313 	0.015867783 	0.4433114
0.0038942179 	0.0032344416 	0.030014759 	0.37219503
0.0039159668 	0.0013596592 	0.036948768 	0.29006724
0.0039374154 	0.00044666932 	0.035188993 	0.20417537
0.0039585677 	0.00010069973 	0.025338283 	0.11994344
0.0039794279 	7.5469193e-06 	0.0094123628 	0.039291082
0.004 	7.5469193e-06 	0.0094123628 	0.039291082
