0 	-0.02556995 	0.052789577 	0.96343903
2.0100503e-05 	0.044834059 	0.030005615 	0.97437088
4.0201005e-05 	0.044834059 	0.030005615 	0.97437088
6.0301508e-05 	0.048408491 	0.012985044 	0.98581538
8.040201e-05 	0.048408491 	0.012985044 	0.98581538
0.00010050251 	0.048408491 	0.012985044 	0.98581538
0.00012060302 	0.045207621 	0.0122061 	0.9979426
0.00014070352 	0.045207621 	0.0122061 	0.9979426
0.00016080402 	0.045207621 	0.0122061 	0.9979426
0.00018090452 	0.041442144 	0.013740231 	1.0108314
0.00020100503 	0.041442144 	0.013740231 	1.0108314
0.00022110553 	0.041442144 	0.013740231 	1.0108314
0.00024120603 	0.037330794 	0.015214123 	1.0240384
0.00026130653 	0.037330794 	0.015214123 	1.0240384
0.00028140704 	0.032912896 	0.016119178 	1.0364736
0.00030150754 	0.032912896 	0.016119178 	1.0364736
0.00032160804 	0.032912896 	0.016119178 	1.0364736
0.00034170854 	0.028269225 	0.016482645 	1.0467833
0.00036180905 	0.028269225 	0.016482645 	1.0467833
0.00038190955 	0.028269225 	0.016482645 	1.0467833
0.00040201005 	0.023522796 	0.016530588 	1.0539865
0.00042211055 	0.023522796 	0.016530588 	1.0539865
0.00044221106 	0.023522796 	0.016530588 	1.0539865
0.00046231156 	0.018820024 	0.01659679 	1.0579107
0.00048241206 	0.018820024 	0.01659679 	1.0579107
0.00050251256 	0.014269787 	0.017027031 	1.0592329
0.00052261307 	0.014269787 	0.017027031 	1.0592329
0.00054271357 	0.014269787 	0.017027031 	1.0592329
0.00056281407 	0.0098919483 	0.018096002 	1.0592438
0.00058291457 	0.0098919483 	0.018096002 	1.0592438
0.00060301508 	0.0098919483 	0.018096002 	1.0592438
0.00062311558 	0.0055899775 	0.019990868 	1.0594994
0.00064321608 	0.0055899775 	0.019990868 	1.0594994
0.00066331658 	0.0055899775 	0.019990868 	1.0594994
0.00068341709 	0.0011665828 	0.022781509 	1.0613926
0.00070351759 	0.0011665828 	0.022781509 	1.0613926
0.00072361809 	-0.0035710397 	0.026371648 	1.0656917
0.00074371859 	-0.0035710397 	0.026371648 	1.0656917
0.0007638191 	-0.0035710397 	0.026371648 	1.0656917
0.0007839196 	-0.0086713689 	0.030485176 	1.0721727
0.0008040201 	-0.0086713689 	0.030485176 	1.0721727
0.0008241206 	-0.0086713689 	0.030485176 	1.0721727
0.00084422111 	-0.013809568 	0.034984196 	1.0794969
0.00086432161 	-0.013809568 	0.034984196 	1.0794969
0.00088442211 	-0.013809568 	0.034984196 	1.0794969
0.00090452261 	-0.018094426 	0.04022335 	1.0854619
0.00092462312 	-0.018094426 	0.04022335 	1.0854619
0.00094472362 	-0.020432527 	0.046588025 	1.0876789
0.00096482412 	-0.020432527 	0.046588025 	1.0876789
0.00098492462 	-0.020432527 	0.046588025 	1.0876789
0.0010050251 	-0.017131299 	0.053141063 	1.0896716
0.0010251256 	-0.017131299 	0.053141063 	1.0896716
0.0010452261 	-0.017131299 	0.053141063 	1.0896716
0.0010653266 	-0.014247488 	0.059260956 	1.0819368
0.0010854271 	-0.014247488 	0.059260956 	1.0819368
0.0011055276 	-0.014247488 	0.059260956 	1.0819368
0.0011256281 	-0.012447482 	0.061011759 	1.0515499
0.0011457286 	-0.012447482 	0.061011759 	1.0515499
0.0011658291 	-0.009308062 	0.062009951 	1.0669143
0.0011859296 	-0.0035728644 	0.060960361 	1.0458649
0.0012060302 	-0.0035728644 	0.060960361 	1.0458649
0.0012261307 	-0.0035728644 	0.060960361 	1.0458649
0.0012462312 	0.0023726817 	0.057895072 	1.0215275
0.0012663317 	-0.0020924146 	0.053187634 	0.9996939
0.0012864322 	-0.0020924146 	0.053187634 	0.9996939
0.0013065327 	0.0028694463 	0.049743472 	0.97643006
0.0013266332 	0.0028694463 	0.049743472 	0.97643006
0.0013467337 	0.0028694463 	0.049743472 	0.97643006
0.0013668342 	0.007433529 	0.048738012 	0.95966916
0.0013869347 	0.007433529 	0.048738012 	0.95966916
0.0014070352 	0.007433529 	0.048738012 	0.95966916
0.0014271357 	0.011618855 	0.049595392 	0.95023782
0.0014472362 	0.018693998 	0.054841382 	0.9650217
0.0014673367 	0.018693998 	0.054841382 	0.9650217
0.0014874372 	0.023046428 	0.055450876 	0.95845211
0.0015075377 	0.015527223 	0.051005194 	0.94721198
0.0015276382 	0.019113007 	0.052085509 	0.94883245
0.0015477387 	0.019113007 	0.052085509 	0.94883245
0.0015678392 	0.019113007 	0.052085509 	0.94883245
0.0015879397 	0.022119927 	0.052458 	0.95315093
0.0016080402 	0.022119927 	0.052458 	0.95315093
0.0016281407 	0.022119927 	0.052458 	0.95315093
0.0016482412 	0.024178682 	0.052140322 	0.95815857
0.0016683417 	0.024178682 	0.052140322 	0.95815857
0.0016884422 	0.024872786 	0.051312259 	0.96200023
0.0017085427 	0.024872786 	0.051312259 	0.96200023
0.0017286432 	0.024872786 	0.051312259 	0.96200023
0.0017487437 	0.023842768 	0.050196602 	0.96328324
0.0017688442 	0.023842768 	0.050196602 	0.96328324
0.0017889447 	0.023842768 	0.050196602 	0.96328324
0.0018090452 	0.020796559 	0.048977913 	0.96144585
0.0018291457 	0.020796559 	0.048977913 	0.96144585
0.0018492462 	0.015645383 	0.04773878 	0.95689628
0.0018693467 	0.015645383 	0.04773878 	0.95689628
0.0018894472 	0.015645383 	0.04773878 	0.95689628
0.0019095477 	0.008605015 	0.046485905 	0.95081837
0.0019296482 	0.008605015 	0.046485905 	0.95081837
0.0019497487 	0.00020392175 	0.045122553 	0.94463736
0.0019698492 	0.00020392175 	0.045122553 	0.94463736
0.0019899497 	-0.0087730566 	0.043499398 	0.93948555
0.0020100503 	-0.0087730566 	0.043499398 	0.93948555
0.0020301508 	-0.0087730566 	0.043499398 	0.93948555
0.0020502513 	-0.017520913 	0.041383988 	0.93594063
0.0020703518 	-0.017520913 	0.041383988 	0.93594063
0.0020904523 	-0.025387031 	0.038458768 	0.93405851
0.0021105528 	-0.025387031 	0.038458768 	0.93405851
0.0021306533 	-0.025387031 	0.038458768 	0.93405851
0.0021507538 	-0.03196725 	0.034356649 	0.93355267
0.0021708543 	-0.03196725 	0.034356649 	0.93355267
0.0021909548 	-0.037131585 	0.028813274 	0.9340418
0.0022110553 	-0.037131585 	0.028813274 	0.9340418
0.0022311558 	-0.040962527 	0.021867189 	0.93527051
0.0022512563 	-0.040962527 	0.021867189 	0.93527051
0.0022713568 	-0.043684432 	0.013971716 	0.93722064
0.0022914573 	-0.043684432 	0.013971716 	0.93722064
0.0023115578 	-0.043684432 	0.013971716 	0.93722064
0.0023316583 	-0.045552197 	0.005886835 	0.94003228
0.0023517588 	-0.045552197 	0.005886835 	0.94003228
0.0023718593 	-0.046733335 	-0.0016012929 	0.94376173
0.0023919598 	-0.046733335 	-0.0016012929 	0.94376173
0.0024120603 	-0.047268032 	-0.0080041404 	0.94817875
0.0024321608 	-0.047268032 	-0.0080041404 	0.94817875
0.0024522613 	-0.047076736 	-0.013199842 	0.95273421
0.0024723618 	-0.047076736 	-0.013199842 	0.95273421
0.0024924623 	-0.046045909 	-0.017281478 	0.95667512
0.0025125628 	-0.046045909 	-0.017281478 	0.95667512
0.0025326633 	-0.044128399 	-0.020355946 	0.95927614
0.0025527638 	-0.044128399 	-0.020355946 	0.95927614
0.0025728643 	-0.04136886 	-0.022380147 	0.95999581
0.0025929648 	-0.04136886 	-0.022380147 	0.95999581
0.0026130653 	-0.037880353 	-0.023168835 	0.95850415
0.0026331658 	-0.037880353 	-0.023168835 	0.95850415
0.0026532663 	-0.033792976 	-0.022497755 	0.95461323
0.0026733668 	-0.033792976 	-0.022497755 	0.95461323
0.0026934673 	-0.029247616 	-0.020193667 	0.94820555
0.0027135678 	-0.029247616 	-0.020193667 	0.94820555
0.0027336683 	-0.024422266 	-0.016210193 	0.93919648
0.0027537688 	-0.024422266 	-0.016210193 	0.93919648
0.0027738693 	-0.019534134 	-0.01065183 	0.9275722
0.0027939698 	-0.019534134 	-0.01065183 	0.9275722
0.0028140704 	-0.014833455 	-0.0037836004 	0.91342315
0.0028341709 	-0.014833455 	-0.0037836004 	0.91342315
0.0028542714 	-0.010581986 	0.0039819318 	0.89706098
0.0028743719 	-0.0070320052 	0.01213131 	0.87905636
0.0028944724 	-0.0070320052 	0.01213131 	0.87905636
0.0029145729 	-0.0044243159 	0.020081451 	0.86027926
0.0029346734 	-0.0044243159 	0.020081451 	0.86027926
0.0029547739 	-0.0029588495 	0.027214193 	0.8418767
0.0029748744 	-0.0029588495 	0.027214193 	0.8418767
0.0029949749 	-0.0027381903 	0.032916242 	0.82513773
0.0030150754 	-0.0037287855 	0.036611726 	0.81125861
0.0030351759 	-0.0037287855 	0.036611726 	0.81125861
0.0030552764 	-0.0057228198 	0.03784311 	0.80105127
0.0030753769 	-0.0057228198 	0.03784311 	0.80105127
0.0030954774 	-0.0083547168 	0.036360043 	0.79471381
0.0031155779 	-0.011157956 	0.032216433 	0.79172649
0.0031356784 	-0.011157956 	0.032216433 	0.79172649
0.0031557789 	-0.013648747 	0.025821835 	0.79090684
0.0031758794 	-0.013648747 	0.025821835 	0.79090684
0.0031959799 	-0.015426339 	0.017895514 	0.79059825
0.0032160804 	-0.016230305 	0.0093136117 	0.78898236
0.0032361809 	-0.016230305 	0.0093136117 	0.78898236
0.0032562814 	-0.015942538 	0.00087003926 	0.78446062
0.0032763819 	-0.014569407 	-0.0069596596 	0.77598846
0.0032964824 	-0.014569407 	-0.0069596596 	0.77598846
0.0033165829 	-0.01200514 	-0.014147469 	0.76328059
0.0033366834 	-0.0081377818 	-0.021079308 	0.7468471
0.0033567839 	-0.0081377818 	-0.021079308 	0.7468471
0.0033768844 	-0.003048986 	-0.028212284 	0.72783728
0.0033969849 	0.003157955 	-0.035707099 	0.70774613
0.0034170854 	0.003157955 	-0.035707099 	0.70774613
0.0034371859 	0.010118498 	-0.043199159 	0.6879512
0.0034572864 	0.017300887 	-0.049958675 	0.66949975
0.0034773869 	0.024217001 	-0.055236412 	0.65305136
0.0034974874 	0.024217001 	-0.055236412 	0.65305136
0.0035175879 	0.030379032 	-0.058523062 	0.63896218
0.0035376884 	0.035404821 	-0.059621695 	0.62735378
0.0035577889 	0.039041819 	-0.058576876 	0.61815262
0.0035778894 	0.039041819 	-0.058576876 	0.61815262
0.0035979899 	0.041157633 	-0.055561192 	0.61113985
0.0036180905 	0.041715015 	-0.050771608 	0.60603662
0.003638191 	0.040740326 	-0.044361669 	0.602624
0.0036582915 	0.040740326 	-0.044361669 	0.602624
0.003678392 	0.038298067 	-0.036409328 	0.60085033
0.0036984925 	0.034485789 	-0.026899653 	0.60079365
0.003718593 	0.029447662 	-0.015730768 	0.6022774
0.0037386935 	0.023411584 	-0.0026714862 	0.60399241
0.003758794 	0.016847705 	0.012379095 	0.60262417
0.0037788945 	0.016847705 	0.012379095 	0.60262417
0.003798995 	0.010450387 	0.029001193 	0.59281002
0.0038190955 	0.0049187221 	0.045800436 	0.56877945
0.003839196 	0.00073470561 	0.060408073 	0.52718113
0.0038592965 	-0.0018786806 	0.07033814 	0.46909188
0.003879397 	-0.0029979556 	0.074047099 	0.39952009
0.0038994975 	-0.0029664342 	0.071316802 	0.3247845
0.003919598 	-0.0022669735 	0.062906021 	0.24977855
0.0039396985 	-0.0013471723 	0.049901092 	0.17671477
0.003959799 	-0.00053036223 	0.033078557 	0.10557914
0.0039798995 	-5.6450666e-05 	0.012503242 	0.035366933
0.004 	-5.6450666e-05 	0.012503242 	0.035366933
