0 	0.040748881 	-0.0072123619 	1.0541183
5.5555556e-05 	-0.012072827 	-0.039052742 	1.0411588
0.00011111111 	-0.011991252 	-0.03951143 	1.0284671
0.00016666667 	-0.011815655 	-0.038321221 	1.0135183
0.00022222222 	-0.013200612 	-0.034161251 	0.99749763
0.00027777778 	-0.015726032 	-0.028036379 	0.9806882
0.00033333333 	-0.018672002 	-0.022023614 	0.96347422
0.00038888889 	-0.021587448 	-0.018010659 	0.94660298
0.00044444444 	-0.024165001 	-0.017164418 	0.93001149
0.0005 	-0.026319925 	-0.019754645 	0.91254976
0.00055555556 	-0.028703759 	-0.024624411 	0.89369256
0.00061111111 	-0.032875236 	-0.029077136 	0.87539683
0.00066666667 	-0.040398462 	-0.030003549 	0.8612153
0.00072222222 	-0.051315096 	-0.026084582 	0.85268462
0.00077777778 	-0.063884786 	-0.018700439 	0.84776475
0.00083333333 	-0.075914821 	-0.010362986 	0.84328592
0.00088888889 	-0.08604733 	-0.002785778 	0.83766527
0.00094444444 	-0.093849272 	0.0034017568 	0.83131079
0.001 	-0.099661687 	0.0080305596 	0.82524048
0.0010617451 	-0.10298627 	0.010233785 	0.8213112
0.0011226367 	-0.10436124 	0.010699135 	0.82051172
0.0011826866 	-0.10394435 	0.010338452 	0.82243126
0.0012419064 	-0.10265979 	0.010224123 	0.82591497
0.0013003077 	-0.10074295 	0.010199517 	0.83019717
0.0013579017 	-0.098231296 	0.0099614646 	0.8352207
0.0014146996 	-0.094841218 	0.009351346 	0.84125387
0.0014707124 	-0.090360709 	0.0085129158 	0.84826891
0.0015259509 	-0.08487685 	0.0077897822 	0.8557315
0.001580426 	-0.07895277 	0.0076539829 	0.86288999
0.001634148 	-0.073491591 	0.0084783074 	0.86930061
0.0016871274 	-0.069328211 	0.01047683 	0.87498547
0.0017393745 	-0.066846217 	0.01380959 	0.88020953
0.0017908994 	-0.065869413 	0.018592855 	0.88515207
0.0018417121 	-0.065871246 	0.024944266 	0.8897038
0.0018918224 	-0.066239467 	0.032790533 	0.89358035
0.0019412401 	-0.066404258 	0.04184852 	0.89650771
0.0019899746 	-0.06587823 	0.051567977 	0.89827896
0.0020380356 	-0.064283154 	0.061206481 	0.89875913
0.0020854322 	-0.061372845 	0.069917638 	0.89789181
0.0021321736 	-0.05704994 	0.076862336 	0.89569178
0.002178269 	-0.051362112 	0.08132779 	0.89219576
0.0022237272 	-0.044491775 	0.08282351 	0.8873973
0.002268557 	-0.036739585 	0.081139751 	0.8812063
0.0023127672 	-0.028498396 	0.07637136 	0.87343011
0.0023563662 	-0.020241617 	0.068908381 	0.86379836
0.0023993626 	-0.012533391 	0.059411717 	0.85202112
0.0024417647 	-0.0059462757 	0.048760788 	0.83786522
0.0024835806 	-0.00090132696 	0.037970703 	0.82135063
0.0025248186 	0.0022957524 	0.028094827 	0.80293039
0.0025654865 	0.0033906761 	0.020171164 	0.78373277
0.0026055923 	0.0021988069 	0.015224153 	0.76556504
0.0026451437 	-0.0013208973 	0.014137736 	0.75037227
0.0026841484 	-0.006845333 	0.01719057 	0.73917592
0.002722614 	-0.013499595 	0.023574059 	0.73124096
0.0027605478 	-0.019857945 	0.031655437 	0.72437292
0.0027979573 	-0.024553602 	0.039636158 	0.7162752
0.0028348498 	-0.026957987 	0.045894403 	0.70588738
0.0028712322 	-0.027279818 	0.049033139 	0.69394002
0.0029071118 	-0.026327789 	0.048280165 	0.68244485
0.0029424953 	-0.025057687 	0.043835849 	0.67339235
0.0029773898 	-0.024140315 	0.036686751 	0.66759402
0.003011802 	-0.023750068 	0.028023841 	0.66449658
0.0030457385 	-0.023665497 	0.018786378 	0.6627591
0.0030792059 	-0.023525732 	0.0095766738 	0.66100408
0.0031122107 	-0.023010306 	0.00078804872 	0.65828125
0.0031447592 	-0.021908505 	-0.0072583082 	0.65421866
0.0031768579 	-0.020156134 	-0.014256365 	0.64893737
0.0032085129 	-0.017812222 	-0.019891039 	0.64289158
0.0032397303 	-0.014999167 	-0.023894905 	0.63668169
0.0032705162 	-0.011875683 	-0.026102801 	0.63088842
0.0033008765 	-0.0086012265 	-0.026498874 	0.6259508
0.0033308172 	-0.0053080179 	-0.025228295 	0.6221048
0.0033603441 	-0.0020950882 	-0.022570647 	0.6193787
0.0033894627 	0.000968967 	-0.018882267 	0.61763935
0.0034181789 	0.0038557304 	-0.014552203 	0.6166526
0.0034464982 	0.0065511146 	-0.0099563589 	0.61616209
0.003474426 	0.0090844428 	-0.0054176599 	0.61592132
0.0035019678 	0.011471887 	-0.0011713403 	0.61570557
0.0035291288 	0.013669071 	0.0026218822 	0.61530454
0.0035559144 	0.015610269 	0.0058835157 	0.6145067
0.0035823298 	0.017241801 	0.0086030231 	0.61307593
0.0036083801 	0.018527025 	0.010810015 	0.6107313
0.0036340702 	0.019415693 	0.01254393 	0.60712818
0.0036594053 	0.019865271 	0.013817377 	0.60185787
0.0036843901 	0.019853927 	0.014586683 	0.59446389
0.0037090296 	0.019389498 	0.014741029 	0.58447081
0.0037333285 	0.018510115 	0.014130022 	0.57140647
0.0037572915 	0.017274485 	0.012634364 	0.55479846
0.0037809233 	0.015745845 	0.010258989 	0.53412631
0.0038042285 	0.013976426 	0.007201733 	0.50872276
0.0038272115 	0.011997629 	0.0038465646 	0.47765281
0.0038498768 	0.0098634521 	0.00067725145 	0.43967369
0.0038722288 	0.00765436 	-0.0018575175 	0.39339369
0.0038942718 	0.0054735546 	-0.0034561337 	0.33774251
0.0039160102 	0.0034719764 	-0.0039967963 	0.27265099
0.003937448 	0.0018143016 	-0.0035224629 	0.19951187
0.0039585896 	0.00064149702 	-0.0022436361 	0.12100251
0.0039794389 	5.4011473e-05 	-0.00060332732 	0.040289914
0.004 	5.4011473e-05 	-0.00060332732 	0.040289914
